  669
Atoms. Timestep: 0
Sn   6.66890   3.04412  39.40967
Sn   6.70952  13.20041   2.07789
Sn   6.69489   3.28322   5.48633
Sn   6.66848  13.18529   8.90971
Sn   6.71970   2.99501  12.45465
Sn   8.36628  13.14390  39.60660
Sn   8.28804   3.11470   2.00582
Sn   8.30124  13.27663   5.56038
Sn   8.19084   3.15314   9.03647
Sn   8.24558  13.10177  12.45320
 O   6.68207  12.98185  38.30126
 O   6.73870   3.16006   0.74609
 O   6.78224  13.25254   4.20131
 O   6.67658   3.03555   7.72334
 O   6.59065  12.87883  11.01295
 O   6.78923  13.04119  40.97045
 O   6.69455   3.26388   3.33011
 O   6.56414  13.37629   6.83729
 O   6.68081   3.24299  10.43670
 O   6.71346  13.09323  13.73209
 O   8.49325  11.06852  39.66264
 O   8.29336   1.07307   2.06233
 O   8.18772  11.19440   5.67945
 O   8.23484   1.09014   9.16316
 O   8.25308  11.02862  12.58096
 O   8.31038   1.87848  39.49623
 O   8.31848  11.83750   2.31488
 O   8.30181   1.92956   5.36392
 O   8.28751  11.90455   8.98946
 O   8.25544   1.65959  12.17421
Sn   9.89839   3.06440  39.59613
Sn   9.85694  13.15136   2.14252
Sn   9.92137   3.22344   5.56505
Sn   9.83921  13.19034   8.99716
Sn   9.87790   2.91880  12.49275
Sn  11.49309  13.23554  39.74400
Sn  11.42822   3.03273   1.97860
Sn  11.53920  13.20240   5.61489
Sn  11.43189   3.07826   9.02376
Sn  11.39124  12.97896  12.43697
 O   9.92426  13.13958  38.38801
 O   9.79613   3.27635   0.67647
 O   9.82899  13.13853   4.21822
 O   9.88228   2.94971   7.67581
 O   9.79970  12.99833  11.08200
 O   9.80772  13.32037   0.05186
 O   9.88680   3.07502   3.46774
 O   9.82261  13.32473   6.91112
 O   9.92118   3.11213  10.40619
 O   9.88385  13.08224  13.77238
 O  11.48858  11.08112  39.78116
 O  11.43050   0.99570   2.04589
 O  11.62460  11.21172   5.53565
 O  11.47658   0.98016   9.26390
 O  11.42208  10.92012  12.62820
 O  11.49385   1.82834  39.99804
 O  11.53646  11.90024   2.15383
 O  11.45889   1.83008   5.51574
 O  11.43892  11.84442   8.74375
 O  11.48407   1.64700  12.26626
Sn   0.39454   3.13886  39.67189
Sn   0.29449  13.15919   2.16605
Sn   0.29175   3.18714   5.64818
Sn   0.29466  13.12701   8.97937
Sn   0.27362   2.97701  12.36523
Sn   2.09106  13.21098  39.66387
Sn   1.84482   3.20921   2.23912
Sn   1.96991  13.25640   5.49549
Sn   1.99442   3.09495   8.99817
Sn   1.84972  13.00656  12.35427
 O   0.36948  13.24652  38.38001
 O   0.33615   3.33914   0.75859
 O   0.25383  13.23795   4.22096
 O   0.37440   3.09850   7.70393
 O   0.24131  12.83018  11.08537
 O   0.38665  12.91153   0.11274
 O   0.22734   3.03229   3.49104
 O   0.28827  13.36858   6.84537
 O   0.36555   3.34154  10.31605
 O   0.26405  13.35001  13.64371
 O   2.11126  11.11673  39.51984
 O   1.94397   1.10772   2.12845
 O   1.95441  11.14003   5.55918
 O   1.92308   1.05816   9.10857
 O   1.90777  11.03514  12.85149
 O   2.00927   1.93790  39.84667
 O   2.00826  11.84958   2.20199
 O   1.90220   1.92381   5.58029
 O   1.94568  11.82759   8.87292
 O   1.86081   1.77610  12.16197
Sn   3.55568   3.04311  39.65110
Sn   3.51720  13.19017   2.12389
Sn   3.46774   3.19988   5.50078
Sn   3.53142  13.14516   8.99242
Sn   3.47050   2.95977  12.49344
Sn   5.12325  13.13948  39.52309
Sn   5.08011   3.13339   1.99332
Sn   5.10467  13.29442   5.50015
Sn   5.08329   3.14564   9.01696
Sn   5.13142  13.05512  12.51375
 O   3.47849   0.04775  38.34511
 O   3.49513   3.21260   0.79499
 O   3.59273  13.36691   4.21944
 O   3.48290   2.98659   7.65008
 O   3.45742  12.87662  11.04921
 O   3.61043  13.14903   0.00187
 O   3.53133   3.13665   3.37514
 O   3.48873  13.25972   6.79603
 O   3.52763   3.30167  10.38908
 O   3.40827  13.17679  13.78407
 O   5.07857  11.16647  39.92477
 O   5.02607   1.12666   1.96630
 O   5.07814  11.17754   5.47744
 O   5.03011   1.06065   9.26793
 O   5.07856  10.92105  12.68226
 O   5.16730   1.87739  39.91738
 O   5.14685  11.90073   2.18656
 O   5.07300   2.02436   5.66094
 O   5.08678  11.89331   8.69188
 O   5.03812   1.71361  12.49948
Sn   6.80969   9.92597  39.65071
Sn   6.73888   6.39248   2.11003
Sn   6.63756   9.88229   5.54901
Sn   6.68116   6.46342   9.14465
Sn   6.66405   9.76744  12.30265
Sn   8.32288   6.39930  39.54343
Sn   8.32203   9.74809   2.07914
Sn   8.26314   6.63862   5.63548
Sn   8.27338   9.84736   8.79188
Sn   8.33065   6.36885  12.46190
 O   6.78441   6.72862  38.12929
 O   6.73709   9.97505   0.68067
 O   6.69354   6.48483   4.19848
 O   6.59875   9.72610   7.63210
 O   6.69842   6.10866  11.19045
 O   6.72502   6.60740  40.89493
 O   6.70864   9.76629   3.36788
 O   6.69411   6.72136   6.94398
 O   6.64273  10.03346  10.21299
 O   6.82537   6.55684  13.91137
 O   8.23121   4.40979  39.56663
 O   8.24337   7.69487   1.93981
 O   8.32926   4.52682   5.67104
 O   8.28064   7.73595   9.06578
 O   8.36257   4.24384  12.88948
 O   8.37082   8.41572  39.42338
 O   8.37256   5.13859   2.22427
 O   8.26087   8.66598   5.49168
 O   8.36448   5.15084   8.93696
 O   8.29749   8.46339  12.27809
Sn  10.02342   9.72525  39.64656
Sn   9.92309   6.47670   2.13763
Sn   9.88727  10.01553   5.52585
Sn   9.92946   6.48889   8.89774
Sn   9.79297   9.65720  12.36184
Sn  11.61753   6.43390  39.70425
Sn  11.57326   9.85349   2.12560
Sn  11.46056   6.59438   5.61306
Sn  11.45223   9.81361   8.93784
Sn  11.48811   6.28227  12.50824
 O   9.99659   6.38550  38.31326
 O   9.93452   9.78863   0.84454
 O   9.79984   6.66283   4.31801
 O   9.83861   9.78925   7.60614
 O   9.95190   6.24067  11.08373
 O   9.91483   6.44421   0.01878
 O   9.95753   9.86708   3.45133
 O   9.93029   6.55254   6.92240
 O   9.74556   9.74824  10.19711
 O   9.97887   6.49930  13.93491
 O  11.48670   4.38216  39.57627
 O  11.50428   7.74228   2.13086
 O  11.41948   4.49461   5.66007
 O  11.52160   7.72409   9.05738
 O  11.44104   4.25041  12.79325
 O  11.65129   8.47309  39.82038
 O  11.51252   5.13771   2.30943
 O  11.49076   8.64118   5.73241
 O  11.40263   5.05230   8.72952
 O  11.41255   8.36914  12.11550
Sn   0.45880   9.98467  39.66594
Sn   0.33220   6.46158   2.19109
Sn   0.36388   9.85692   5.51474
Sn   0.37692   6.25193   8.98358
Sn   0.23381   9.64447  12.70467
Sn   1.97088   6.53366  39.62097
Sn   2.00498   9.86295   2.12018
Sn   1.90207   6.62799   5.60772
Sn   1.78534   9.77315   9.12525
Sn   1.83887   6.29415  12.34172
 O   0.39247   6.55605  38.25391
 O   0.43245   9.93831   0.76635
 O   0.34910   6.59547   4.21949
 O   0.35966   9.78986   7.65568
 O   0.20284   6.11348  11.09706
 O   0.47869   6.37944  40.97309
 O   0.37537   9.83934   3.46835
 O   0.39264   6.47987   6.97788
 O   0.32700   9.90740  10.37931
 O   0.38460   6.54954  13.72945
 O   1.95511   4.46178  39.26703
 O   1.94232   7.80980   2.04060
 O   1.92692   4.47301   5.41832
 O   1.88930   7.74586   9.24204
 O   1.86799   4.25355  12.64555
 O   1.94138   8.53966  39.56390
 O   2.00308   5.27961   2.30924
 O   2.02002   8.56816   5.49354
 O   2.01899   5.15823   8.86270
 O   1.80747   8.42672  12.33122
Sn   3.63217   9.70362  39.66586
Sn   3.57475   6.54626   2.07682
Sn   3.51281   9.88453   5.66825
Sn   3.45631   6.56970   8.99500
Sn   3.40294   9.73386  12.57967
Sn   5.14740   6.47048  39.65881
Sn   5.16421   9.81326   2.07438
Sn   5.11893   6.50661   5.58573
Sn   4.97152   9.85920   9.03894
Sn   5.15756   6.34335  12.53072
 O   3.58981   6.65156  38.20450
 O   3.57725   9.80219   0.71804
 O   3.51694   6.46362   4.26624
 O   3.41045   9.79919   7.73909
 O   3.51651   6.26868  11.08067
 O   3.53517   6.45695  40.95345
 O   3.53119   9.76644   3.44102
 O   3.46307   6.80172   6.98709
 O   3.44024   9.78752  10.43500
 O   3.56351   6.57485  13.80467
 O   5.11152   4.44299  39.39536
 O   5.23020   7.72369   2.12438
 O   5.09090   4.52208   5.73849
 O   5.11439   7.72088   9.33854
 O   5.19585   4.29360  12.78813
 O   5.27262   8.48883  39.64368
 O   5.11141   5.17753   1.79174
 O   5.08569   8.61546   5.47780
 O   5.18287   5.20075   8.79638
 O   5.11552   8.31920  12.27903
 O   6.58714   2.72674  14.66896
 H   6.58473   3.59538  15.18560
 H   7.40758   2.28365  14.96220
 O   9.66622   2.58619  14.59179
 H  12.28016   1.76409  16.25976
 H   9.86676   5.81201  14.70483
 O   0.54207   2.71398  14.63537
 H   0.24014   3.61460  15.06004
 H   1.55152   2.67605  14.60987
 O   3.13725   2.82611  14.63026
 H   3.64416   2.20725  15.19831
 H   3.63024   5.88781  14.58091
 O   6.51202   9.16447  14.51859
 H   5.49103   9.00252  14.61899
 H   6.83433   8.19841  14.33296
 O  10.04430   9.45104  14.64092
 H   9.55184   8.76672  15.17390
 H  11.06776   9.41367  14.78536
 O  12.70890   9.55648  14.86369
 H   0.43294  10.90531  15.60430
 H   0.49280   8.82462  15.34997
 O   3.81431   9.43324  14.57718
 H   3.21662   8.83562  15.09239
 H   5.10885  11.94797  15.88142
 O   6.39989   2.90764  37.36419
 H   6.23623   4.38470  36.62161
 H   7.02877   2.22714  37.01322
 O  10.19477   2.92559  37.56219
 H  10.05906  13.17928  36.90071
 H  10.49540   3.96682  35.78003
 O   0.11982   2.40694  37.71982
 H  11.90955   2.48583  37.44230
 H   0.53731   0.64792  37.88718
 O   3.82002   2.67773  37.42200
 H   4.81682   2.75173  37.26841
 H   3.40113   6.09275  37.29197
 O   6.47987  10.11760  37.62137
 H   6.64601  11.05359  37.31927
 H   6.69571   8.61043  36.31059
 O  10.35361   9.85416  37.49396
 H   9.93977   9.09061  36.97777
 H  11.48104   9.77768  37.54392
 O   0.09348   9.92564  37.56241
 H   3.38263  10.39664  36.98111
 H   0.49966   9.14724  37.07023
 O   3.88288   9.67453  37.38355
 H   4.96121   9.95888  37.21262
 H   3.55548   1.77187  37.09687
 O   5.08930  11.83779  26.46825
 H   5.66295  11.57006  27.17497
 H   5.43411  11.63224  25.59063
 O  10.95882  11.83285  26.16569
 H  10.03979  12.38044  26.04315
 H  11.50212  12.06060  25.38227
 O   6.93011   7.49902  18.52716
 H   7.14688   8.26701  19.15713
 H   6.01578   7.70012  18.14595
 O   6.93593   1.55136  27.28430
 H   7.52735   2.26699  27.72880
 H   7.03652   1.82466  26.34752
 O   7.92318  12.82616  31.76057
 H   8.75147  12.56324  32.28963
 H   7.27991  13.15541  32.52554
 O   3.09555  11.43208  21.40798
 H   2.45383  11.01948  21.99603
 H   2.50776  11.88550  20.84241
 O   7.90459   1.10394  17.05997
 H   8.80597   1.13561  16.54553
 H   7.47605   0.28457  16.70783
 O   7.07319   8.34225  35.42987
 H  10.19717   7.81366  35.09856
 H   6.54667   7.66587  35.01549
 O   0.98252   2.86830  20.41775
 H   0.15260   2.38220  20.05578
 H   1.14935   3.63125  19.77519
 O   3.80267   5.29978  15.99154
 H   3.64581   4.36801  15.65691
 H   4.79505   5.24748  15.92748
 O   5.40494   8.52143  22.45818
 H   5.11971   8.46322  21.53687
 H   5.33940   7.52135  22.72694
 O   7.80366   8.55646  24.08075
 H   7.29960   8.33873  23.25068
 H   7.15511   8.30862  24.74217
 O   3.01047   9.32108  34.04389
 H   2.39536   9.20853  33.26513
 H   3.45039  10.15438  33.78117
 O  12.10809   1.49467  34.39926
 H   0.23276   1.59924  34.89630
 H  11.46832   0.97082  34.99219
 O  10.10160   5.15011  22.40188
 H  10.85311   4.52571  22.47561
 H  10.10540   5.66433  23.28012
 O   4.47479   1.58642  16.62185
 H   3.83734   0.87199  16.91424
 H   5.25922   1.26673  16.08829
 O  12.46310   3.94319  22.57294
 H   0.20958   3.83965  23.48806
 H   0.32070   3.64534  21.81547
 O  11.27510  10.95118  28.65734
 H  12.14571  10.75937  29.02469
 H  11.45922  11.10775  27.72176
 O   2.06174   3.50269  30.41812
 H   1.57418   3.41954  29.62495
 H   1.48633   4.19571  30.85205
 O   4.01602   0.21832  33.62227
 H   3.34425   0.69001  33.10214
 H   3.61567  13.25426  34.42153
 O   6.45202   8.36508  26.50903
 H   5.51835   8.33234  26.20767
 H   6.62652   7.42060  26.72354
 O  12.72812   6.69385  34.34850
 H   0.61744   7.20984  34.92998
 H   0.47389   6.35217  33.52748
 O   9.48547   6.40599  24.66226
 H   9.08974   7.24164  24.32205
 H  10.17934   6.66228  25.35013
 O   1.87401   7.74465  16.24039
 H   2.12900   6.81238  15.95064
 H   1.58988   7.53865  17.21692
 O   9.29246   7.17808  20.56401
 H  10.01496   7.45337  19.99458
 H   9.55117   6.47866  21.11838
 O  10.10801   9.03966  25.94430
 H  10.30037   9.99342  26.15474
 H   9.10772   8.92859  26.09860
 O   4.81416  11.06005  32.66332
 H   4.85536  10.99540  31.70454
 H   4.54280  11.99624  32.91960
 O  12.27051  11.17683  32.74361
 H  12.21451  12.14336  32.44958
 H  12.67346  11.22376  33.60690
 O   8.35283  12.37494  23.31994
 H   8.51559  12.69219  24.19502
 H   8.62237  13.04101  22.70252
 O  10.18940   3.92334  31.98597
 H  10.07222   2.90969  31.81388
 H   9.55345   4.44724  31.43783
 O  11.43692   0.30121  29.14024
 H  11.20080  12.80759  29.05430
 H  11.55891   0.69168  28.25372
 O   6.39213   5.78682  20.72853
 H   5.48608   5.59828  20.36331
 H   6.78907   6.35105  20.00673
 O   0.62712   7.05757  18.86454
 H   0.92449   6.08701  18.73536
 H   1.10554   7.37459  19.68081
 O   2.19549   1.06115  31.56136
 H   1.29273   0.88156  31.86190
 H   2.15502   1.90221  31.09754
 O   3.19347  12.69856  29.68858
 H   3.44980  13.32382  28.92585
 H   2.77859  13.28108  30.41752
 O   1.54500   8.19920  36.05851
 H   2.23718   7.51023  36.37275
 H   1.99653   8.72834  35.43171
 O   0.07773   7.02915  22.67104
 H   0.10454   6.99962  23.68220
 H  12.32765   6.25891  22.32685
 O   8.13280   5.28971  33.93800
 H   8.11507   5.95374  33.17428
 H   9.05306   5.15174  34.24169
 O   1.71675   4.46134  18.25925
 H   1.28266   4.43795  17.42478
 H   2.56127   4.93889  18.06105
 O  12.63669   4.94448  15.72684
 H   0.02586   5.65003  14.99065
 H  11.68644   4.86147  15.99577
 O   9.41586   0.74588  20.76036
 H   8.71502   1.28795  20.30127
 H   9.31678  13.19368  20.52630
 O  11.66851   1.85765  26.63429
 H  12.32341   1.30966  26.12871
 H  11.07587   2.19154  25.99457
 O   7.31139  10.47643  33.67200
 H   7.15260   9.68413  34.22719
 H   6.43629  10.72098  33.33205
 O   1.24176  12.14103  19.65754
 H   0.62348  12.95046  19.63933
 H   1.65206  12.27027  18.75016
 O   7.42908   5.85667  28.96284
 H   6.59251   5.75774  29.50660
 H   8.23871   6.04606  29.50506
 O   1.73542   1.69595  35.72099
 H   1.24849   2.25898  36.42017
 H   2.05469   2.46547  35.08941
 O   9.58726   1.48522  30.80998
 H  10.24361   0.89574  30.19045
 H   8.94187   0.77630  31.17911
 O   3.87528   0.81719  23.27032
 H   3.88719   1.23683  22.39351
 H   4.15658  13.26955  23.07951
 O  10.32727   8.33201  29.00943
 H  10.50469   9.30237  29.11583
 H   9.68102   8.15324  29.71828
 O   2.16712   1.15562  25.33450
 H   2.66976   1.11199  26.19314
 H   2.87112   1.12709  24.62204
 O   5.05253  10.99008  30.02386
 H   5.94159  11.18723  29.68500
 H   4.36950  11.74697  29.71801
 O   1.52424  10.74666  29.01039
 H   1.85062  10.45134  28.12576
 H   2.06224  11.54776  29.17569
 O   0.80867   7.07549  25.36479
 H  12.65580   6.91049  25.76111
 H   1.42153   6.40472  25.70009
 O  12.38571   0.28651  32.08485
 H  12.05905   0.86228  32.88006
 H  12.19811   0.67729  31.17470
 O   7.27523   5.95912  26.45276
 H   7.60446   5.68409  27.26620
 H   7.98465   6.09488  25.77201
 O   4.63163   4.57715  32.82341
 H   4.51219   4.76557  31.89319
 H   5.58768   4.17341  32.80896
 O   1.29173   9.58578  26.12480
 H   0.95258   8.73029  25.80870
 H   1.18835  10.13360  25.32912
 O   5.70668   0.69601  29.83290
 H   6.28052   0.62243  29.00739
 H   6.11195   0.11035  30.53644
 O  10.68481   1.68521  22.98899
 H  10.16301   1.40496  22.16960
 H  11.30695   2.41537  22.64962
 O   0.45239  11.89102  15.67066
 H   0.33959  12.80405  14.50873
 H  12.38943  12.00795  16.28079
 O   7.89570   9.25322  20.83681
 H   8.41224   8.41270  20.80781
 H   7.19976   9.05254  21.49035
 O   2.94403  11.92169  36.04620
 H   1.99213  11.88368  35.81291
 H   2.99913  12.53596  36.85537
 O   7.61680   0.66361  36.07937
 H   8.56201   0.37274  35.97489
 H   7.16415   0.17155  36.90828
 O  10.62060  12.43480  16.29529
 H  10.46750  12.46184  15.35907
 H  10.02032  11.76232  16.70576
 O  11.11102   4.60296  28.31768
 H  10.41377   3.94087  28.54326
 H  11.89881   4.09038  28.52394
 O   3.70053   2.34963  20.88343
 H   3.55300   3.27575  21.18076
 H   2.75694   2.01993  20.77075
 O   0.24886   7.48780  30.25577
 H   0.51359   8.31304  30.81281
 H  12.24445   7.70556  29.70794
 O  10.70573   4.63331  35.09082
 H  12.59504   5.18934  35.82195
 H  10.81508   4.17444  34.23829
 O   1.20031   3.64490  24.56101
 H   1.35362   4.30664  25.24915
 H   1.57721   2.74696  24.95042
 O   1.47206   9.79541  31.46254
 H   0.79800  10.35275  31.86554
 H   1.59268  10.02094  30.48878
 O   3.01081   4.77395  22.11087
 H   2.61613   4.28856  22.91967
 H   3.87831   5.13104  22.47888
 O  12.68987  13.30026  24.20403
 H   0.70238   0.33357  24.56908
 H  12.19395   0.56999  23.62088
 O   4.82633   3.20885  29.44705
 H   3.87281   2.85656  29.48244
 H   5.38966   2.46254  29.84126
 O   0.89449   3.10958  28.15419
 H   0.20284   2.78137  27.55439
 H   1.35846   3.86189  27.72956
 O   4.76008   4.51345  25.98113
 H   5.29166   3.69455  25.61538
 H   5.55916   4.95092  26.36360
 O   3.33266   5.94979  35.79793
 H   2.81788   5.32564  35.21619
 H   4.31413   5.61957  35.73489
 O   4.13090   5.77694  19.09392
 H   4.27472   6.57850  18.45661
 H   4.37352   4.95537  18.60953
 O   9.32228   2.60586  25.24351
 H   8.77028   3.36761  25.39486
 H   9.50068   2.50183  24.28267
 O   9.10546   7.89334  16.59890
 H   8.39641   7.46963  17.18375
 H   9.82181   7.96565  17.25998
 O   4.85692   8.43282  29.11553
 H   4.86109   9.34774  29.52931
 H   5.41926   8.48100  28.32479
 O   7.52186   2.28002  19.37357
 H   6.57453   2.52790  19.41671
 H   7.60174   1.58030  18.58848
 O   2.22471   5.06809  26.81611
 H   2.43885   5.71951  27.53020
 H   3.17140   4.75931  26.73083
 O   2.24180   4.13376  34.11450
 H   1.36316   4.23222  33.83680
 H   2.87007   4.03722  33.41024
 O   9.99819   4.72721  15.96543
 H   9.47816   4.84270  16.78140
 H   9.81189   3.83157  15.53766
 O   5.08288   5.72934  30.18063
 H   4.12167   5.96360  29.95490
 H   5.04390   4.73275  30.01259
 O   7.97533  10.34812  30.42144
 H   7.96818  11.19900  30.85998
 H   7.37156   9.75973  30.91704
 O  11.56180   1.37225  16.76754
 H  11.40112   0.47918  16.43516
 H  10.15956   1.75621  14.71667
 O   2.33875   7.36217  20.96302
 H   1.78071   7.26395  21.78110
 H   2.76613   6.46343  20.91933
 O   5.15675   7.31490  33.61056
 H   4.93292   6.38996  33.27847
 H   4.33258   7.76258  33.82882
 O   4.96056   3.33542  18.50068
 H   4.61105   2.79976  17.75975
 H   4.46127   3.02835  19.33502
 O  11.27246   6.58313  26.65117
 H  10.89299   7.37133  27.07858
 H  11.05542   5.74353  27.19946
 O   3.95777   8.61938  25.62326
 H   3.11094   8.99223  25.96878
 H   4.09280   8.94616  24.77177
 O   1.02681  10.75009  23.25874
 H   0.71763  11.66416  23.60974
 H   0.17510  10.26877  23.12376
 O   0.54376   4.86983  36.43345
 H   0.27400   3.99816  36.84052
 H   0.43256   5.91750  37.46458
 O  11.68929   9.35605  22.45401
 H  10.81779   9.19184  22.91862
 H  12.08966   8.46025  22.44073
 O   8.76772   6.89172  31.30709
 H   7.89534   7.46599  31.36687
 H   9.45738   7.51889  31.74094
 O   2.28224  13.20126  17.16733
 H   2.81946  12.46341  16.78822
 H   1.55128  13.32318  16.57873
 O   2.60420   6.83540  28.97546
 H   3.17307   7.62697  28.83952
 H   1.78790   7.01140  29.47568
 O   4.34187   8.20911  17.62402
 H   3.53090   8.13040  17.05521
 H   4.07507   8.74280  18.43354
 O   7.55999   4.06664  22.52619
 H   7.17121   4.52951  21.70364
 H   8.55919   4.26325  22.52129
 O   6.45504   4.96199  15.98745
 H   6.76885   5.63461  15.20637
 H   6.93594   5.09675  16.86104
 O   8.37444  10.80188  17.32562
 H   8.67746  10.90468  18.27555
 H   8.60359   9.83441  17.12625
 O   4.07876  11.75098  15.81479
 H   4.00333  10.77615  15.49433
 H   3.50991  12.56381  14.60854
 O  11.91797  10.38785  19.94442
 H  12.70554  10.89989  19.80848
 H  11.95477  10.09440  20.90282
 O   4.09133   9.09649  20.11819
 H   3.53401   8.48102  20.66497
 H   3.83014  10.01116  20.46860
 O   5.63461  11.42053  23.67743
 H   5.57556  10.53603  23.31197
 H   6.53558  11.73742  23.48897
 O  10.76485   8.39085  33.27697
 H  11.18634   9.20099  32.93401
 H  11.46573   7.78376  33.50082
 O   3.92229   0.88576  27.36657
 H   4.27542   0.07083  27.07356
 H   4.70349   1.44401  27.51897
 O   0.21594   5.40223  32.04730
 H   0.21322   6.16403  31.37240
 H  12.08840   4.93182  31.92295
 O   9.49360  11.80856  33.81596
 H   8.62935  11.30774  33.80644
 H  10.21618  11.19959  33.55644
 O   8.36340   4.80920  18.13420
 H   7.98179   5.38549  18.80114
 H   8.07592   3.90663  18.44737
 O   6.08963   2.60117  24.47915
 H   6.75235   2.95167  23.78649
 H   5.39810   2.05978  24.07717
 O   9.40235  11.65434  19.94002
 H   9.04093  10.90910  20.43141
 H  10.32949  11.39729  19.92448
 O   7.24549  10.63076  27.68163
 H   7.05545   9.73202  27.32552
 H   7.88390  10.44277  28.48201
 O   6.63952  12.24850  16.05902
 H   7.30951  11.56642  16.32538
 H   6.84138  12.56072  15.05456
 O   6.99833   3.28752  32.63391
 H   7.52690   3.90167  33.22178
 H   6.96669   2.31105  32.95387
 O   5.20042   5.84822  23.51618
 H   6.07523   5.41229  23.33280
 H   4.98384   5.59698  24.40416
 O  12.05385   1.07453  19.38507
 H  11.09904   0.99496  19.72477
 H  11.95382   1.20971  18.36935
 O  10.95794   8.19616  18.71261
 H  11.25722   9.02178  19.22440
 H  11.89008   7.78821  18.55076
 O   6.40166   8.16045  31.44271
 H   5.91235   7.89020  32.29190
 H   5.78406   7.97295  30.71752
 O   8.67598   3.10993  28.70692
 H   9.06299   2.51168  29.45709
 H   8.06394   3.78223  29.17611
 O   8.53277  12.59516  26.17873
 H   8.23074  11.91490  26.83302
 H   8.29476   0.04659  26.66893
 O   6.09905   5.27365  36.02206
 H   6.72070   5.22222  35.23387
 H   6.65238   6.15693  37.34664
 O   6.62573   0.75680  33.61822
 H   6.95785   0.59271  34.59053
 H   5.68155   0.52436  33.53776
 O   9.72516   7.97697  35.92372
 H  10.03512   6.96400  37.53124
 H   8.72100   7.96860  35.70993
 O   0.33937  11.90429  35.64131
 H   0.20766  11.35689  36.47114
 H  12.57164  12.74324  35.75946
 O  10.18006  13.36002  35.86027
 H  10.01919  12.55508  35.32178
 H   9.65099   2.28188  37.06601
  669
Atoms. Timestep: 1
Sn   6.66762   3.04491  39.40889
Sn   6.70870  13.19970   2.07856
Sn   6.69468   3.28221   5.48687
Sn   6.66772  13.18523   8.90973
Sn   6.71994   2.99480  12.45522
Sn   8.36544  13.14284  39.60653
Sn   8.28710   3.11578   2.00478
Sn   8.30111  13.27735   5.56031
Sn   8.19021   3.15227   9.03646
Sn   8.24648  13.10199  12.45427
 O   6.68020  12.97918  38.30116
 O   6.73786   3.15927   0.74352
 O   6.78145  13.25398   4.20411
 O   6.67551   3.03777   7.72100
 O   6.58958  12.87839  11.01645
 O   6.79261  13.03903  40.96926
 O   6.69711   3.26098   3.33036
 O   6.56438  13.37452   6.83584
 O   6.68120   3.24288  10.43594
 O   6.71102  13.08983  13.73127
 O   8.48982  11.06924  39.66114
 O   8.29647   1.07298   2.06350
 O   8.18695  11.19241   5.67754
 O   8.23183   1.09188   9.16246
 O   8.25098  11.03191  12.58045
 O   8.31215   1.87702  39.49851
 O   8.31752  11.83718   2.31366
 O   8.30485   1.93038   5.36404
 O   8.28551  11.90466   8.98892
 O   8.25694   1.66245  12.17212
Sn   9.89914   3.06544  39.59606
Sn   9.85569  13.15017   2.14341
Sn   9.92025   3.22265   5.56447
Sn   9.83875  13.18950   8.99820
Sn   9.87880   2.92005  12.49188
Sn  11.49245  13.23512  39.74485
Sn  11.42758   3.03333   1.97851
Sn  11.53895  13.20243   5.61476
Sn  11.43283   3.07758   9.02473
Sn  11.39046  12.97932  12.43700
 O   9.92446  13.13842  38.38479
 O   9.79627   3.27943   0.67518
 O   9.82727  13.13717   4.21929
 O   9.88500   2.94706   7.67452
 O   9.79930  12.99694  11.08240
 O   9.80789  13.31751   0.05285
 O   9.88550   3.07291   3.46718
 O   9.82574  13.32209   6.90919
 O   9.91972   3.11397  10.40888
 O   9.88194  13.08018  13.77426
 O  11.48910  11.07981  39.78212
 O  11.43369   0.99605   2.04772
 O  11.62394  11.21381   5.53690
 O  11.47828   0.98026   9.26108
 O  11.42114  10.91902  12.62554
 O  11.49541   1.83186  39.99814
 O  11.53406  11.89818   2.15107
 O  11.45798   1.83334   5.51610
 O  11.43678  11.84436   8.74258
 O  11.48380   1.64420  12.26835
Sn   0.39384   3.13973  39.67227
Sn   0.29554  13.15820   2.16577
Sn   0.29252   3.18743   5.64819
Sn   0.29528  13.12586   8.97914
Sn   0.27405   2.97660  12.36413
Sn   2.09187  13.20980  39.66284
Sn   1.84350   3.21016   2.23858
Sn   1.97056  13.25678   5.49579
Sn   1.99451   3.09456   8.99744
Sn   1.85063  13.00618  12.35412
 O   0.37133  13.24949  38.37833
 O   0.33337   3.33811   0.75728
 O   0.25213  13.23802   4.22176
 O   0.37415   3.09497   7.70298
 O   0.24167  12.82732  11.08885
 O   0.38355  12.91163   0.11237
 O   0.22986   3.03127   3.48896
 O   0.28569  13.36562   6.84500
 O   0.36630   3.34375  10.31778
 O   0.26566  13.35235  13.64439
 O   2.11350  11.11646  39.51712
 O   1.94358   1.10901   2.13065
 O   1.95269  11.14044   5.56276
 O   1.92369   1.05827   9.10557
 O   1.90783  11.03487  12.85332
 O   2.01078   1.93510  39.84907
 O   2.00642  11.85012   2.20239
 O   1.90474   1.92102   5.58033
 O   1.94249  11.82751   8.87504
 O   1.86424   1.77532  12.15863
Sn   3.55604   3.04353  39.65113
Sn   3.51761  13.19134   2.12344
Sn   3.46876   3.20052   5.50117
Sn   3.53118  13.14561   8.99386
Sn   3.47132   2.95995  12.49377
Sn   5.12272  13.13943  39.52240
Sn   5.07990   3.13392   1.99378
Sn   5.10421  13.29560   5.49941
Sn   5.08392   3.14530   9.01800
Sn   5.13083  13.05510  12.51515
 O   3.47745   0.04557  38.34772
 O   3.49608   3.21434   0.79798
 O   3.59073  13.36725   4.22124
 O   3.48444   2.98930   7.65012
 O   3.45467  12.87865  11.04989
 O   3.61180  13.14946   0.00194
 O   3.53139   3.13404   3.37439
 O   3.48625  13.26100   6.79900
 O   3.52708   3.30423  10.39054
 O   3.40478  13.17568  13.78105
 O   5.08140  11.16735  39.92769
 O   5.02762   1.12656   1.96551
 O   5.07561  11.17623   5.48009
 O   5.03323   1.06394   9.26818
 O   5.07955  10.92218  12.68120
 O   5.16808   1.87984  39.91566
 O   5.14843  11.89964   2.18623
 O   5.07184   2.02210   5.65886
 O   5.08819  11.89064   8.69361
 O   5.03500   1.71557  12.50015
Sn   6.80989   9.92687  39.65054
Sn   6.74006   6.39160   2.11036
Sn   6.63681   9.88251   5.55017
Sn   6.68227   6.46302   9.14390
Sn   6.66497   9.76688  12.30245
Sn   8.32256   6.39908  39.54407
Sn   8.32104   9.74841   2.07814
Sn   8.26423   6.63860   5.63688
Sn   8.27334   9.84826   8.79319
Sn   8.32979   6.36994  12.46223
 O   6.78751   6.72540  38.13031
 O   6.73472   9.97709   0.68198
 O   6.69585   6.48688   4.19740
 O   6.59578   9.72302   7.63571
 O   6.69718   6.10884  11.19232
 O   6.72351   6.61004  40.89855
 O   6.70944   9.76872   3.36884
 O   6.69420   6.72406   6.94606
 O   6.64230  10.03394  10.21570
 O   6.82275   6.55991  13.91325
 O   8.23360   4.40976  39.56422
 O   8.24070   7.69514   1.93906
 O   8.33266   4.52712   5.67352
 O   8.27975   7.73386   9.06562
 O   8.36478   4.24316  12.88763
 O   8.36947   8.41559  39.42164
 O   8.37438   5.13770   2.22117
 O   8.25783   8.66559   5.48905
 O   8.36205   5.14970   8.93731
 O   8.29554   8.46306  12.27762
Sn  10.02405   9.72604  39.64649
Sn   9.92306   6.47787   2.13720
Sn   9.88699  10.01425   5.52533
Sn   9.92872   6.48855   8.89836
Sn   9.79363   9.65689  12.36221
Sn  11.61794   6.43442  39.70395
Sn  11.57379   9.85228   2.12679
Sn  11.46056   6.59561   5.61244
Sn  11.45264   9.81257   8.93692
Sn  11.48681   6.28251  12.50785
 O   9.99586   6.38817  38.31103
 O   9.93403   9.79210   0.84494
 O   9.80137   6.66559   4.31521
 O   9.84099   9.79116   7.60500
 O   9.95526   6.24120  11.08359
 O   9.91132   6.44082   0.01740
 O   9.95650   9.86737   3.45443
 O   9.93191   6.54979   6.92148
 O   9.74818   9.75107  10.19975
 O   9.97533   6.49956  13.93459
 O  11.48851   4.38209  39.57973
 O  11.50564   7.73896   2.13247
 O  11.41726   4.49180   5.66082
 O  11.52111   7.72091   9.05598
 O  11.44084   4.25209  12.79435
 O  11.65317   8.47622  39.81804
 O  11.51344   5.13823   2.31237
 O  11.49293   8.63974   5.73183
 O  11.40012   5.05050   8.72800
 O  11.41567   8.36728  12.11615
Sn   0.45790   9.98525  39.66596
Sn   0.33280   6.46135   2.19213
Sn   0.36485   9.85715   5.51403
Sn   0.37719   6.25115   8.98251
Sn   0.23358   9.64541  12.70578
Sn   1.97162   6.53247  39.62025
Sn   2.00605   9.86324   2.12032
Sn   1.90255   6.62708   5.60668
Sn   1.78543   9.77233   9.12423
Sn   1.83761   6.29475  12.34109
 O   0.39114   6.55489  38.25181
 O   0.43580   9.93538   0.76565
 O   0.34770   6.59740   4.22183
 O   0.35911   9.79061   7.65293
 O   0.20011   6.11370  11.09719
 O   0.47968   6.38161  40.97605
 O   0.37438   9.84050   3.47095
 O   0.39089   6.47698   6.97757
 O   0.32517   9.90885  10.37920
 O   0.38116   6.54874  13.73167
 O   1.95286   4.45829  39.27029
 O   1.94196   7.80991   2.04285
 O   1.92390   4.46960   5.41958
 O   1.89248   7.74513   9.24502
 O   1.87151   4.25219  12.64904
 O   1.94092   8.53762  39.56241
 O   2.00321   5.28104   2.30657
 O   2.01762   8.56824   5.49386
 O   2.01842   5.16149   8.86081
 O   1.80487   8.42391  12.33355
Sn   3.63088   9.70485  39.66622
Sn   3.57478   6.54701   2.07602
Sn   3.51268   9.88457   5.66931
Sn   3.45588   6.57021   8.99398
Sn   3.40301   9.73408  12.57942
Sn   5.14665   6.46934  39.65901
Sn   5.16316   9.81323   2.07430
Sn   5.11886   6.50709   5.58537
Sn   4.97169   9.85920   9.03879
Sn   5.15687   6.34461  12.52987
 O   3.59280   6.64845  38.20822
 O   3.57868   9.80159   0.71836
 O   3.51351   6.46297   4.26294
 O   3.41382   9.80133   7.73642
 O   3.51890   6.27004  11.07901
 O   3.53838   6.45927  40.95275
 O   3.52957   9.76395   3.44458
 O   3.46264   6.80137   6.98415
 O   3.44126   9.78900  10.43241
 O   3.56332   6.57825  13.80614
 O   5.11408   4.44643  39.39269
 O   5.23255   7.72448   2.12373
 O   5.09045   4.52267   5.73836
 O   5.11755   7.72181   9.34204
 O   5.19721   4.29297  12.78906
 O   5.27513   8.48949  39.64331
 O   5.11140   5.17980   1.78847
 O   5.08562   8.61687   5.47751