 DBCSR| CPU Multiplication driver                                           XSMM
 DBCSR| Multrec recursion limit                                              512
 DBCSR| Multiplication stack size                                           1000
 DBCSR| Maximum elements for images                                    UNLIMITED
 DBCSR| Multiplicative factor virtual images                                   1
 DBCSR| Use multiplication densification                                       T
 DBCSR| Multiplication size stacks                                             3
 DBCSR| Number of 3D layers                                               SINGLE
 DBCSR| Use MPI memory allocation                                              T
 DBCSR| Use RMA algorithm                                                      F
 DBCSR| Use Communication thread                                               T
 DBCSR| Communication thread load                                             87


  **** **** ******  **  PROGRAM STARTED AT               2024-11-15 08:54:54.285
 ***** ** ***  *** **   PROGRAM STARTED ON                               c53-003
 **    ****   ******    PROGRAM STARTED BY                                 jxzhu
 ***** **    ** ** **   PROGRAM PROCESS ID                                374995
  **** **  *******  **  PROGRAM STARTED IN /data/jxzhu/nnp/dp_workdir/feb7ecd3c8
                                           91246149cf6c369e4f48b847fff05a/calc/t
                                           ask.000.000000

 CP2K| version string:                                          CP2K version 7.1
 CP2K| source code revision number:                                  git:e635599
 CP2K| cp2kflags: libint fftw3 libxc elpa parallel mpi3 scalapack xsmm spglib   
 CP2K| is freely available from                            https://www.cp2k.org/
 CP2K| Program compiled at                           Mon Mar 8 20:53:19 CST 2021
 CP2K| Program compiled on                                                 mgt01
 CP2K| Program compiled for                                                local
 CP2K| Data directory path                                    /data/jxzhu/basis/
 CP2K| Input file name                                                 input.inp

 GLOBAL| Force Environment number                                              1
 GLOBAL| Basis set file name                                        BASIS_MOLOPT
 GLOBAL| Potential file name                                      GTH_POTENTIALS
 GLOBAL| MM Potential file name                                     MM_POTENTIAL
 GLOBAL| Coordinate file name                                          coord.xyz
 GLOBAL| Method name                                                        CP2K
 GLOBAL| Project name                                                       cp2k
 GLOBAL| Preferred FFT library                                             FFTW3
 GLOBAL| Preferred diagonalization lib.                                     ELPA
 GLOBAL| Run type                                                   ENERGY_FORCE
 GLOBAL| All-to-all communication in single precision                          F
 GLOBAL| FFTs using library dependent lengths                                  F
 GLOBAL| Global print level                                               MEDIUM
 GLOBAL| MPI I/O enabled                                                       T
 GLOBAL| Total number of message passing processes                            64
 GLOBAL| Number of threads for this process                                    1
 GLOBAL| This output is from process                                           0
 GLOBAL| CPU model name                Intel(R) Xeon(R) Gold 6226R CPU @ 2.90GHz
 GLOBAL| CPUID                                                              1003
 GLOBAL| Compiled for CPUID                                                 1002
 HINT in environment.F:814 The compiler target flags (x86_avx2) used to build
   this binary cannot exploit all extensions of this CPU model (x86_avx512).
   Consider compiler target flags as part of FCFLAGS and CFLAGS (ARCH file).

 MEMORY| system memory details [Kb]
 MEMORY|                        rank 0           min           max       average
 MEMORY| MemTotal            196472820     196472820     196481376     196477098
 MEMORY| MemFree             182583648     182539544     182583648     182561589
 MEMORY| Buffers                  2196             0          2196          1098
 MEMORY| Cached                 976108        320704        976196        648410
 MEMORY| Slab                   457128        440252        457192        448692
 MEMORY| SReclaimable           151952        125024        151952        138488
 MEMORY| MemLikelyFree       183713904     182985272     183713904     183349585


 *** Fundamental physical constants (SI units) ***

 *** Literature: B. J. Mohr and B. N. Taylor,
 ***             CODATA recommended values of the fundamental physical
 ***             constants: 2006, Web Version 5.1
 ***             http://physics.nist.gov/constants

 Speed of light in vacuum [m/s]                             2.99792458000000E+08
 Magnetic constant or permeability of vacuum [N/A**2]       1.25663706143592E-06
 Electric constant or permittivity of vacuum [F/m]          8.85418781762039E-12
 Planck constant (h) [J*s]                                  6.62606896000000E-34
 Planck constant (h-bar) [J*s]                              1.05457162825177E-34
 Elementary charge [C]                                      1.60217648700000E-19
 Electron mass [kg]                                         9.10938215000000E-31
 Electron g factor [ ]                                     -2.00231930436220E+00
 Proton mass [kg]                                           1.67262163700000E-27
 Fine-structure constant                                    7.29735253760000E-03
 Rydberg constant [1/m]                                     1.09737315685270E+07
 Avogadro constant [1/mol]                                  6.02214179000000E+23
 Boltzmann constant [J/K]                                   1.38065040000000E-23
 Atomic mass unit [kg]                                      1.66053878200000E-27
 Bohr radius [m]                                            5.29177208590000E-11

 *** Conversion factors ***

 [u] -> [a.u.]                                              1.82288848426455E+03
 [Angstrom] -> [Bohr] = [a.u.]                              1.88972613288564E+00
 [a.u.] = [Bohr] -> [Angstrom]                              5.29177208590000E-01
 [a.u.] -> [s]                                              2.41888432650478E-17
 [a.u.] -> [fs]                                             2.41888432650478E-02
 [a.u.] -> [J]                                              4.35974393937059E-18
 [a.u.] -> [N]                                              8.23872205491840E-08
 [a.u.] -> [K]                                              3.15774647902944E+05
 [a.u.] -> [kJ/mol]                                         2.62549961709828E+03
 [a.u.] -> [kcal/mol]                                       6.27509468713739E+02
 [a.u.] -> [Pa]                                             2.94210107994716E+13
 [a.u.] -> [bar]                                            2.94210107994716E+08
 [a.u.] -> [atm]                                            2.90362800883016E+08
 [a.u.] -> [eV]                                             2.72113838565563E+01
 [a.u.] -> [Hz]                                             6.57968392072181E+15
 [a.u.] -> [1/cm] (wave numbers)                            2.19474631370540E+05
 [a.u./Bohr**2] -> [1/cm]                                   5.14048714338585E+03
 

 CELL_TOP| Volume [angstrom^3]:                                        10221.806
 CELL_TOP| Vector a [angstrom    16.869     0.000     0.000    |a| =      16.869
 CELL_TOP| Vector b [angstrom     0.000    14.609     0.000    |b| =      14.609
 CELL_TOP| Vector c [angstrom     0.000     0.000    41.478    |c| =      41.478
 CELL_TOP| Angle (b,c), alpha [degree]:                                   90.000
 CELL_TOP| Angle (a,c), beta  [degree]:                                   90.000
 CELL_TOP| Angle (a,b), gamma [degree]:                                   90.000
 CELL_TOP| Numerically orthorhombic:                                         YES

 GENERATE|  Preliminary Number of Bonds generated:                             0
 GENERATE|  Achieved consistency in connectivity generation.

 CELL| Volume [angstrom^3]:                                            10221.806
 CELL| Vector a [angstrom]:      16.869     0.000     0.000    |a| =      16.869
 CELL| Vector b [angstrom]:       0.000    14.609     0.000    |b| =      14.609
 CELL| Vector c [angstrom]:       0.000     0.000    41.478    |c| =      41.478
 CELL| Angle (b,c), alpha [degree]:                                       90.000
 CELL| Angle (a,c), beta  [degree]:                                       90.000
 CELL| Angle (a,b), gamma [degree]:                                       90.000
 CELL| Numerically orthorhombic:                                             YES

 CELL_REF| Volume [angstrom^3]:                                        10221.806
 CELL_REF| Vector a [angstrom    16.869     0.000     0.000    |a| =      16.869
 CELL_REF| Vector b [angstrom     0.000    14.609     0.000    |b| =      14.609
 CELL_REF| Vector c [angstrom     0.000     0.000    41.478    |c| =      41.478
 CELL_REF| Angle (b,c), alpha [degree]:                                   90.000
 CELL_REF| Angle (a,c), beta  [degree]:                                   90.000
 CELL_REF| Angle (a,b), gamma [degree]:                                   90.000
 CELL_REF| Numerically orthorhombic:                                         YES

 *******************************************************************************
 *******************************************************************************
 **                                                                           **
 **     #####                         ##              ##                      **
 **    ##   ##            ##          ##              ##                      **
 **   ##     ##                       ##            ######                    **
 **   ##     ##  ##   ##  ##   #####  ##  ##   ####   ##    #####    #####    **
 **   ##     ##  ##   ##  ##  ##      ## ##   ##      ##   ##   ##  ##   ##   **
 **   ##  ## ##  ##   ##  ##  ##      ####     ###    ##   ######   ######    **
 **    ##  ###   ##   ##  ##  ##      ## ##      ##   ##   ##       ##        **
 **     #######   #####   ##   #####  ##  ##  ####    ##    #####   ##        **
 **           ##                                                    ##        **
 **                                                                           **
 **                                                ... make the atoms dance   **
 **                                                                           **
 **            Copyright (C) by CP2K developers group (2000 - 2019)           **
 **                                                                           **
 *******************************************************************************

 DFT| Spin restricted Kohn-Sham (RKS) calculation                            RKS
 DFT| Multiplicity                                                             1
 DFT| Number of spin states                                                    1
 DFT| Charge                                                                   0
 DFT| Self-interaction correction (SIC)                                       NO
 DFT| Cutoffs: density                                              1.000000E-10
 DFT|          gradient                                             1.000000E-10
 DFT|          tau                                                  1.000000E-10
 DFT|          cutoff_smoothing_range                               0.000000E+00
 DFT| XC density smoothing                                                  NONE
 DFT| XC derivatives                                                          PW
 FUNCTIONAL| ROUTINE=NEW
 FUNCTIONAL| PBE:
 FUNCTIONAL| J.P.Perdew, K.Burke, M.Ernzerhof, Phys. Rev. Letter, vol. 77, n 18,
 FUNCTIONAL|  pp. 3865-3868, (1996){spin unpolarized}                           
 vdW POTENTIAL|                                                   Pair Potential
 vdW POTENTIAL|          DFT-D3 (Version 3.1)
 vdW POTENTIAL|          Potential Form: S. Grimme et al, JCP 132: 154104 (2010)
 vdW POTENTIAL|          Zero Damping
 vdW POTENTIAL|          Cutoff Radius [Bohr]:                             20.00
 vdW POTENTIAL|          s6 Scaling Factor:                               1.0000
 vdW POTENTIAL|          sr6 Scaling Factor:                              1.2170
 vdW POTENTIAL|          s8 Scaling Factor:                               0.7220
 vdW POTENTIAL|          Cutoff for CN calculation:                   0.1000E-05

 QS| Method:                                                                 GPW
 QS| Density plane wave grid type                        NON-SPHERICAL FULLSPACE
 QS| Number of grid levels:                                                    5
 QS| Density cutoff [a.u.]:                                                400.0
 QS| Multi grid cutoff [a.u.]: 1) grid level                               400.0
 QS|                           2) grid level                               133.3
 QS|                           3) grid level                                44.4
 QS|                           4) grid level                                14.8
 QS|                           5) grid level                                 4.9
 QS| Grid level progression factor:                                          3.0
 QS| Relative density cutoff [a.u.]:                                        20.0
 QS| Consistent realspace mapping and integration 
 QS| Interaction thresholds: eps_pgf_orb:                                3.2E-07
 QS|                         eps_filter_matrix:                          0.0E+00
 QS|                         eps_core_charge:                            1.0E-15
 QS|                         eps_rho_gspace:                             1.0E-13
 QS|                         eps_rho_rspace:                             1.0E-13
 QS|                         eps_gvg_rspace:                             3.2E-07
 QS|                         eps_ppl:                                    1.0E-02
 QS|                         eps_ppnl:                                   3.2E-09


 ATOMIC KIND INFORMATION

  1. Atomic kind: O                                     Number of atoms:     225

     Orbital Basis Set                                        DZVP-MOLOPT-SR-GTH

       Number of orbital shell sets:                                           1
       Number of orbital shells:                                               5
       Number of primitive Cartesian functions:                                5
       Number of Cartesian basis functions:                                   14
       Number of spherical basis functions:                                   13
       Norm type:                                                              2

       Normalised Cartesian orbitals:

                        Set   Shell   Orbital            Exponent    Coefficient

                          1       1    2s               10.389228       0.396646
                                                         3.849621       0.208811
                                                         1.388401      -0.301641
                                                         0.496955      -0.274061
                                                         0.162492      -0.033677

                          1       2    3s               10.389228       0.303673
                                                         3.849621       0.240943
                                                         1.388401      -0.313066
                                                         0.496955      -0.043055
                                                         0.162492       0.213991

                          1       3    3px              10.389228      -1.530415
                                                         3.849621      -1.371928
                                                         1.388401      -0.761951
                                                         0.496955      -0.253695
                                                         0.162492      -0.035541
                          1       3    3py              10.389228      -1.530415
                                                         3.849621      -1.371928
                                                         1.388401      -0.761951
                                                         0.496955      -0.253695
                                                         0.162492      -0.035541
                          1       3    3pz              10.389228      -1.530415
                                                         3.849621      -1.371928
                                                         1.388401      -0.761951
                                                         0.496955      -0.253695
                                                         0.162492      -0.035541

                          1       4    4px              10.389228      -0.565392
                                                         3.849621      -0.038231
                                                         1.388401      -0.382373
                                                         0.496955       0.179070
                                                         0.162492       0.122714
                          1       4    4py              10.389228      -0.565392
                                                         3.849621      -0.038231
                                                         1.388401      -0.382373
                                                         0.496955       0.179070
                                                         0.162492       0.122714
                          1       4    4pz              10.389228      -0.565392
                                                         3.849621      -0.038231
                                                         1.388401      -0.382373
                                                         0.496955       0.179070
                                                         0.162492       0.122714

                          1       5    4dx2             10.389228       1.867377
                                                         3.849621       0.670994
                                                         1.388401       1.353441
                                                         0.496955       0.273538
                                                         0.162492       0.006620
                          1       5    4dxy             10.389228       3.234392
                                                         3.849621       1.162195
                                                         1.388401       2.344229
                                                         0.496955       0.473781
                                                         0.162492       0.011466
                          1       5    4dxz             10.389228       3.234392
                                                         3.849621       1.162195
                                                         1.388401       2.344229
                                                         0.496955       0.473781
                                                         0.162492       0.011466
                          1       5    4dy2             10.389228       1.867377
                                                         3.849621       0.670994
                                                         1.388401       1.353441
                                                         0.496955       0.273538
                                                         0.162492       0.006620
                          1       5    4dyz             10.389228       3.234392
                                                         3.849621       1.162195
                                                         1.388401       2.344229
                                                         0.496955       0.473781
                                                         0.162492       0.011466
                          1       5    4dz2             10.389228       1.867377
                                                         3.849621       0.670994
                                                         1.388401       1.353441
                                                         0.496955       0.273538
                                                         0.162492       0.006620

     GTH Potential information for                                    GTH-PBE-q6

       Description:                       Goedecker-Teter-Hutter pseudopotential
                                           Goedecker et al., PRB 54, 1703 (1996)
                                          Hartwigsen et al., PRB 58, 3641 (1998)
                                                      Krack, TCA 114, 145 (2005)

       Gaussian exponent of the core charge distribution:               8.360253
       Electronic configuration (s p d ...):                               2   4

       Parameters of the local part of the GTH pseudopotential:

                          rloc        C1          C2          C3          C4
                        0.244554  -16.667215    2.487311

       Parameters of the non-local part of the GTH pseudopotential:

                   l      r(l)      h(i,j,l)

                   0    0.220956   18.337458
                   1    0.211332

  2. Atomic kind: H                                     Number of atoms:     450

     Orbital Basis Set                                        DZVP-MOLOPT-SR-GTH

       Number of orbital shell sets:                                           1
       Number of orbital shells:                                               3
       Number of primitive Cartesian functions:                                5
       Number of Cartesian basis functions:                                    5
       Number of spherical basis functions:                                    5
       Norm type:                                                              2

       Normalised Cartesian orbitals:

                        Set   Shell   Orbital            Exponent    Coefficient

                          1       1    2s               10.068468      -0.133023
                                                         2.680223      -0.177618
                                                         0.791502      -0.258419
                                                         0.239116      -0.107525
                                                         0.082193      -0.014019

                          1       2    3s               10.068468       0.344673
                                                         2.680223       1.819821
                                                         0.791502      -0.999069
                                                         0.239116       0.017430
                                                         0.082193       0.082660

                          1       3    3px              10.068468       0.155326
                                                         2.680223       0.367157
                                                         0.791502       0.311480
                                                         0.239116       0.080105
                                                         0.082193       0.033440
                          1       3    3py              10.068468       0.155326
                                                         2.680223       0.367157
                                                         0.791502       0.311480
                                                         0.239116       0.080105
                                                         0.082193       0.033440
                          1       3    3pz              10.068468       0.155326
                                                         2.680223       0.367157
                                                         0.791502       0.311480
                                                         0.239116       0.080105
                                                         0.082193       0.033440

     GTH Potential information for                                    GTH-PBE-q1

       Description:                       Goedecker-Teter-Hutter pseudopotential
                                           Goedecker et al., PRB 54, 1703 (1996)
                                          Hartwigsen et al., PRB 58, 3641 (1998)
                                                      Krack, TCA 114, 145 (2005)

       Gaussian exponent of the core charge distribution:              12.500000
       Electronic configuration (s p d ...):                                   1

       Parameters of the local part of the GTH pseudopotential:

                          rloc        C1          C2          C3          C4
                        0.200000   -4.178900    0.724463

  3. Atomic kind: K                                     Number of atoms:      10

     Orbital Basis Set                                        DZVP-MOLOPT-SR-GTH

       Number of orbital shell sets:                                           1
       Number of orbital shells:                                               6
       Number of primitive Cartesian functions:                                6
       Number of Cartesian basis functions:                                   15
       Number of spherical basis functions:                                   14
       Norm type:                                                              2

       Normalised Cartesian orbitals:

                        Set   Shell   Orbital            Exponent    Coefficient

                          1       1    2s                2.891270      -0.180768
                                                         2.714958      -0.456776
                                                         0.954063       0.362989
                                                         0.407596       0.212032
                                                         0.163340       0.022041
                                                         0.036854       0.007479

                          1       2    3s                2.891270       0.171987
                                                         2.714958       0.053001
                                                         0.954063      -0.143101
                                                         0.407596      -0.146103
                                                         0.163340      -0.005758
                                                         0.036854       0.065364

                          1       3    4s                2.891270       0.160063
                                                         2.714958      -0.075574
                                                         0.954063       0.273359
                                                         0.407596      -1.010132
                                                         0.163340       0.531781
                                                         0.036854      -0.045501

                          1       4    3px               2.891270       4.178447
                                                         2.714958      -3.954466
                                                         0.954063      -0.590690
                                                         0.407596      -0.212503
                                                         0.163340      -0.025451
                                                         0.036854      -0.000081
                          1       4    3py               2.891270       4.178447
                                                         2.714958      -3.954466
                                                         0.954063      -0.590690
                                                         0.407596      -0.212503
                                                         0.163340      -0.025451
                                                         0.036854      -0.000081
                          1       4    3pz               2.891270       4.178447
                                                         2.714958      -3.954466
                                                         0.954063      -0.590690
                                                         0.407596      -0.212503
                                                         0.163340      -0.025451
                                                         0.036854      -0.000081

                          1       5    4px               2.891270       1.159381
                                                         2.714958      -1.162890
                                                         0.954063      -0.129719
                                                         0.407596      -0.082991
                                                         0.163340       0.016967
                                                         0.036854       0.022207
                          1       5    4py               2.891270       1.159381
                                                         2.714958      -1.162890
                                                         0.954063      -0.129719
                                                         0.407596      -0.082991
                                                         0.163340       0.016967
                                                         0.036854       0.022207
                          1       5    4pz               2.891270       1.159381
                                                         2.714958      -1.162890
                                                         0.954063      -0.129719
                                                         0.407596      -0.082991
                                                         0.163340       0.016967
                                                         0.036854       0.022207

                          1       6    4dx2              2.891270      -0.221513
                                                         2.714958       1.024649
                                                         0.954063       0.338080
                                                         0.407596       0.076385
                                                         0.163340       0.029732
                                                         0.036854       0.002330
                          1       6    4dxy              2.891270      -0.383672
                                                         2.714958       1.774744
                                                         0.954063       0.585572
                                                         0.407596       0.132303
                                                         0.163340       0.051497
                                                         0.036854       0.004035
                          1       6    4dxz              2.891270      -0.383672
                                                         2.714958       1.774744
                                                         0.954063       0.585572
                                                         0.407596       0.132303
                                                         0.163340       0.051497
                                                         0.036854       0.004035
                          1       6    4dy2              2.891270      -0.221513
                                                         2.714958       1.024649
                                                         0.954063       0.338080
                                                         0.407596       0.076385
                                                         0.163340       0.029732
                                                         0.036854       0.002330
                          1       6    4dyz              2.891270      -0.383672
                                                         2.714958       1.774744
                                                         0.954063       0.585572
                                                         0.407596       0.132303
                                                         0.163340       0.051497
                                                         0.036854       0.004035
                          1       6    4dz2              2.891270      -0.221513
                                                         2.714958       1.024649
                                                         0.954063       0.338080
                                                         0.407596       0.076385
                                                         0.163340       0.029732
                                                         0.036854       0.002330

     GTH Potential information for                                    GTH-PBE-q9

       Description:                       Goedecker-Teter-Hutter pseudopotential
                                           Goedecker et al., PRB 54, 1703 (1996)
                                          Hartwigsen et al., PRB 58, 3641 (1998)
                                                      Krack, TCA 114, 145 (2005)

       Gaussian exponent of the core charge distribution:               3.125000
       Electronic configuration (s p d ...):                               3   6

       Parameters of the local part of the GTH pseudopotential:

                          rloc        C1          C2          C3          C4
                        0.400000   -3.363552   -1.086530

       Parameters of the non-local part of the GTH pseudopotential:

                   l      r(l)      h(i,j,l)

                   0    0.305318   17.850623   -5.622649
                                   -5.622649    7.258808
                   1    0.316484    7.333780   -2.460945
                                   -2.460945    2.911829

  4. Atomic kind: F                                     Number of atoms:      10

     Orbital Basis Set                                        DZVP-MOLOPT-SR-GTH

       Number of orbital shell sets:                                           1
       Number of orbital shells:                                               5
       Number of primitive Cartesian functions:                                5
       Number of Cartesian basis functions:                                   14
       Number of spherical basis functions:                                   13
       Norm type:                                                              2

       Normalised Cartesian orbitals:

                        Set   Shell   Orbital            Exponent    Coefficient

                          1       1    2s               13.701521       0.466640
                                                         5.098269       0.275181
                                                         1.837941      -0.385817
                                                         0.631759      -0.323188
                                                         0.202027      -0.041057

                          1       2    3s               13.701521       0.812914
                                                         5.098269       0.409868
                                                         1.837941      -0.484144
                                                         0.631759      -0.510807
                                                         0.202027       0.323394

                          1       3    3px              13.701521      -2.132362
                                                         5.098269      -1.951997
                                                         1.837941      -1.094976
                                                         0.631759      -0.344511
                                                         0.202027      -0.046836
                          1       3    3py              13.701521      -2.132362
                                                         5.098269      -1.951997
                                                         1.837941      -1.094976
                                                         0.631759      -0.344511
                                                         0.202027      -0.046836
                          1       3    3pz              13.701521      -2.132362
                                                         5.098269      -1.951997
                                                         1.837941      -1.094976
                                                         0.631759      -0.344511
                                                         0.202027      -0.046836

                          1       4    4px              13.701521      -2.306567
                                                         5.098269      -1.843421
                                                         1.837941      -1.245905
                                                         0.631759      -0.318382
                                                         0.202027       0.198065
                          1       4    4py              13.701521      -2.306567
                                                         5.098269      -1.843421
                                                         1.837941      -1.245905
                                                         0.631759      -0.318382
                                                         0.202027       0.198065
                          1       4    4pz              13.701521      -2.306567
                                                         5.098269      -1.843421
                                                         1.837941      -1.245905
                                                         0.631759      -0.318382
                                                         0.202027       0.198065

                          1       5    4dx2             13.701521       1.831894
                                                         5.098269       1.226066
                                                         1.837941       1.533195
                                                         0.631759       0.583867
                                                         0.202027      -0.008805
                          1       5    4dxy             13.701521       3.172934
                                                         5.098269       2.123609
                                                         1.837941       2.655572
                                                         0.631759       1.011287
                                                         0.202027      -0.015251
                          1       5    4dxz             13.701521       3.172934
                                                         5.098269       2.123609
                                                         1.837941       2.655572
                                                         0.631759       1.011287
                                                         0.202027      -0.015251
                          1       5    4dy2             13.701521       1.831894
                                                         5.098269       1.226066
                                                         1.837941       1.533195
                                                         0.631759       0.583867
                                                         0.202027      -0.008805
                          1       5    4dyz             13.701521       3.172934
                                                         5.098269       2.123609
                                                         1.837941       2.655572
                                                         0.631759       1.011287
                                                         0.202027      -0.015251
                          1       5    4dz2             13.701521       1.831894
                                                         5.098269       1.226066
                                                         1.837941       1.533195
                                                         0.631759       0.583867
                                                         0.202027      -0.008805

     GTH Potential information for                                    GTH-PBE-q7

       Description:                       Goedecker-Teter-Hutter pseudopotential
                                           Goedecker et al., PRB 54, 1703 (1996)
                                          Hartwigsen et al., PRB 58, 3641 (1998)
                                                      Krack, TCA 114, 145 (2005)

       Gaussian exponent of the core charge distribution:              10.823746
       Electronic configuration (s p d ...):                               2   5

       Parameters of the local part of the GTH pseudopotential:

                          rloc        C1          C2          C3          C4
                        0.214930  -21.573028    3.199776

       Parameters of the non-local part of the GTH pseudopotential:

                   l      r(l)      h(i,j,l)

                   0    0.194684   23.743540
                   1    0.186156

  5. Atomic kind: Pt                                    Number of atoms:     216

     Orbital Basis Set                      DZVP-A5-Q10-323-MOL-T1-DERIVED_SET-1

       Number of orbital shell sets:                                           1
       Number of orbital shells:                                               6
       Number of primitive Cartesian functions:                                5
       Number of Cartesian basis functions:                                   23
       Number of spherical basis functions:                                   20
       Norm type:                                                              2

       Normalised Cartesian orbitals:

                        Set   Shell   Orbital            Exponent    Coefficient

                          1       1    2s                2.521825       0.177473
                                                         1.453920      -0.063399
                                                         0.614053      -0.407089
                                                         0.232656       0.262254
                                                         0.074788       0.047371

                          1       2    3s                2.521825      -0.049056
                                                         1.453920       0.044904
                                                         0.614053      -0.009756
                                                         0.232656      -0.144709
                                                         0.074788       0.144085

                          1       3    3px               2.521825      -0.317572
                                                         1.453920       0.534826
                                                         0.614053      -0.489458
                                                         0.232656       0.245631
                                                         0.074788       0.018221
                          1       3    3py               2.521825      -0.317572
                                                         1.453920       0.534826
                                                         0.614053      -0.489458
                                                         0.232656       0.245631
                                                         0.074788       0.018221
                          1       3    3pz               2.521825      -0.317572
                                                         1.453920       0.534826
                                                         0.614053      -0.489458
                                                         0.232656       0.245631
                                                         0.074788       0.018221

                          1       4    4dx2              2.521825       3.008522
                                                         1.453920      -1.224251
                                                         0.614053       0.225691
                                                         0.232656       0.125144
                                                         0.074788      -0.015348
                          1       4    4dxy              2.521825       5.210912
                                                         1.453920      -2.120465
                                                         0.614053       0.390909
                                                         0.232656       0.216756
                                                         0.074788      -0.026584
                          1       4    4dxz              2.521825       5.210912
                                                         1.453920      -2.120465
                                                         0.614053       0.390909
                                                         0.232656       0.216756
                                                         0.074788      -0.026584
                          1       4    4dy2              2.521825       3.008522
                                                         1.453920      -1.224251
                                                         0.614053       0.225691
                                                         0.232656       0.125144
                                                         0.074788      -0.015348
                          1       4    4dyz              2.521825       5.210912
                                                         1.453920      -2.120465
                                                         0.614053       0.390909
                                                         0.232656       0.216756
                                                         0.074788      -0.026584
                          1       4    4dz2              2.521825       3.008522
                                                         1.453920      -1.224251
                                                         0.614053       0.225691
                                                         0.232656       0.125144
                                                         0.074788      -0.015348

                          1       5    5dx2              2.521825       0.698026
                                                         1.453920      -1.511486
                                                         0.614053      -0.335394
                                                         0.232656      -0.025564
                                                         0.074788      -0.002699
                          1       5    5dxy              2.521825       1.209017
                                                         1.453920      -2.617970
                                                         0.614053      -0.580920
                                                         0.232656      -0.044277
                                                         0.074788      -0.004674
                          1       5    5dxz              2.521825       1.209017
                                                         1.453920      -2.617970
                                                         0.614053      -0.580920
                                                         0.232656      -0.044277
                                                         0.074788      -0.004674
                          1       5    5dy2              2.521825       0.698026
                                                         1.453920      -1.511486
                                                         0.614053      -0.335394
                                                         0.232656      -0.025564
                                                         0.074788      -0.002699
                          1       5    5dyz              2.521825       1.209017
                                                         1.453920      -2.617970
                                                         0.614053      -0.580920
                                                         0.232656      -0.044277
                                                         0.074788      -0.004674
                          1       5    5dz2              2.521825       0.698026
                                                         1.453920      -1.511486
                                                         0.614053      -0.335394
                                                         0.232656      -0.025564
                                                         0.074788      -0.002699

                          1       6    6dx2              2.521825       0.831079
                                                         1.453920      -0.709226
                                                         0.614053      -0.137351
                                                         0.232656       0.068642
                                                         0.074788       0.011745
                          1       6    6dxy              2.521825       1.439472
                                                         1.453920      -1.228415
                                                         0.614053      -0.237899
                                                         0.232656       0.118891
                                                         0.074788       0.020343
                          1       6    6dxz              2.521825       1.439472
                                                         1.453920      -1.228415
                                                         0.614053      -0.237899
                                                         0.232656       0.118891
                                                         0.074788       0.020343
                          1       6    6dy2              2.521825       0.831079
                                                         1.453920      -0.709226
                                                         0.614053      -0.137351
                                                         0.232656       0.068642
                                                         0.074788       0.011745
                          1       6    6dyz              2.521825       1.439472
                                                         1.453920      -1.228415
                                                         0.614053      -0.237899
                                                         0.232656       0.118891
                                                         0.074788       0.020343
                          1       6    6dz2              2.521825       0.831079
                                                         1.453920      -0.709226
                                                         0.614053      -0.137351
                                                         0.232656       0.068642
                                                         0.074788       0.011745

     GTH Potential information for                                   GTH-PBE-q10

       Description:                       Goedecker-Teter-Hutter pseudopotential
                                           Goedecker et al., PRB 54, 1703 (1996)
                                          Hartwigsen et al., PRB 58, 3641 (1998)
                                                      Krack, TCA 114, 145 (2005)

       Gaussian exponent of the core charge distribution:               1.317676
       Electronic configuration (s p d ...):                           1   0   9

       Parameters of the local part of the GTH pseudopotential:

                          rloc        C1          C2          C3          C4
                        0.616000   11.313635

       Parameters of the non-local part of the GTH pseudopotential:

                   l      r(l)      h(i,j,l)

                   0    0.550904    4.733491   -1.784594
                                   -1.784594    2.303901
                   1    0.674138    2.534798   -1.778066
                                   -1.778066    2.103836
                   2    0.457392   -7.264011    2.558665
                                    2.558665   -2.901253


 MOLECULE KIND INFORMATION


 All atoms are their own molecule, skipping detailed information


 TOTAL NUMBERS AND MAXIMUM NUMBERS

  Total number of            - Atomic kinds:                                   5
                             - Atoms:                                        911
                             - Shell sets:                                   911
                             - Shells:                                      3881
                             - Primitive Cartesian functions:               4565
                             - Cartesian basis functions:                  10658
                             - Spherical basis functions:                   9765

  Maximum angular momentum of- Orbital basis functions:                        2
                             - Local part of the GTH pseudopotential:          2
                             - Non-local part of the GTH pseudopotential:      4


 MODULE QUICKSTEP:  ATOMIC COORDINATES IN angstrom

  Atom  Kind  Element       X           Y           Z          Z(eff)       Mass

       1     1 O    8    1.576570    0.739673    7.820340      6.00      15.9994
       2     1 O    8   11.835200    7.475810   29.696200      6.00      15.9994
       3     1 O    8    9.359500    7.272170   34.124400      6.00      15.9994
       4     1 O    8   12.363100   14.034000   10.669000      6.00      15.9994
       5     1 O    8    3.359420   12.164900    3.226050      6.00      15.9994
       6     1 O    8    6.641570   12.546300    3.836520      6.00      15.9994
       7     1 O    8    0.092519    3.315470    5.217000      6.00      15.9994
       8     1 O    8   14.544500    6.496500   34.099500      6.00      15.9994
       9     1 O    8   12.049300    4.378080   29.562600      6.00      15.9994
      10     1 O    8    2.678890    7.256230   34.716700      6.00      15.9994
      11     1 O    8   15.586100    1.935490   29.856200      6.00      15.9994
      12     1 O    8   11.751100   13.959400   35.543600      6.00      15.9994
      13     1 O    8   11.722300   12.325500   30.374500      6.00      15.9994
      14     1 O    8   15.057100    7.622570   40.395700      6.00      15.9994
      15     1 O    8    4.557190    8.490740    1.968180      6.00      15.9994
      16     1 O    8   10.222100    8.010250    9.120960      6.00      15.9994
      17     1 O    8    1.660390    7.017230   28.837400      6.00      15.9994
      18     1 O    8    5.086080   11.793400   32.851300      6.00      15.9994
      19     1 O    8   14.504400    9.108240    3.205100      6.00      15.9994
      20     1 O    8   10.786000    4.060460    9.273250      6.00      15.9994
      21     1 O    8    1.972720    1.652310   35.658200      6.00      15.9994
      22     1 O    8    2.787510   11.888700    5.678900      6.00      15.9994
      23     1 O    8   10.899900   11.833400   10.991600      6.00      15.9994
      24     1 O    8   12.438700   13.709600   40.412700      6.00      15.9994
      25     1 O    8   16.350700    8.090670   35.458300      6.00      15.9994
      26     1 O    8    8.795140    8.351390   39.880300      6.00      15.9994
      27     1 O    8    0.459349    2.912060   11.929000      6.00      15.9994
      28     1 O    8    5.287230   12.270100    9.827260      6.00      15.9994
      29     1 O    8   10.806900   12.372500   38.651500      6.00      15.9994
      30     1 O    8   12.332800    3.803250    6.542600      6.00      15.9994
      31     1 O    8   12.665100    7.003740   36.162700      6.00      15.9994
      32     1 O    8    6.553170    5.741240    3.423840      6.00      15.9994
      33     1 O    8    9.137350   12.897000    5.072500      6.00      15.9994
      34     1 O    8    5.901490   11.927400   30.321700      6.00      15.9994
      35     1 O    8   14.592900   12.308500   41.400359      6.00      15.9994
      36     1 O    8    3.297190   10.149100    9.545120      6.00      15.9994
      37     1 O    8    6.988070    6.529460    0.675429      6.00      15.9994
      38     1 O    8    0.612204    1.527260   38.993800      6.00      15.9994
      39     1 O    8   10.795400    5.857490    5.399390      6.00      15.9994
      40     1 O    8   11.327300   14.559800    7.806380      6.00      15.9994
      41     1 O    8    0.794179   10.125900   39.151300      6.00      15.9994
      42     1 O    8    2.786310   14.608500   28.785900      6.00      15.9994
      43     1 O    8    8.463840   10.303300   31.607200      6.00      15.9994
      44     1 O    8   14.446600    5.402260   30.081300      6.00      15.9994
      45     1 O    8    4.352350    1.394680   33.847800      6.00      15.9994
      46     1 O    8    5.178670   13.542500   12.272100      6.00      15.9994
      47     1 O    8   10.846300    3.326830    0.791489      6.00      15.9994
      48     1 O    8    7.454230   12.493900   38.834700      6.00      15.9994
      49     1 O    8    2.307310    5.489410    8.315700      6.00      15.9994
      50     1 O    8   16.314400    1.783510   32.364300      6.00      15.9994
      51     1 O    8    8.957000    9.866550   28.955100      6.00      15.9994
      52     1 O    8   12.450900    2.808550   36.983400      6.00      15.9994
      53     1 O    8   13.505500    4.708210    8.809000      6.00      15.9994
      54     1 O    8   15.857600    7.034600   11.837200      6.00      15.9994
      55     1 O    8   14.381100    0.577353   35.488100      6.00      15.9994
      56     1 O    8    0.728145   13.739900   37.795700      6.00      15.9994
      57     1 O    8    3.108900   11.626200   29.781000      6.00      15.9994
      58     1 O    8    4.572630   14.434500    3.670270      6.00      15.9994
      59     1 O    8    1.371700   10.021400   11.970900      6.00      15.9994
      60     1 O    8   16.386100   10.578000   29.614800      6.00      15.9994
      61     1 O    8    8.467840    2.367470   33.390300      6.00      15.9994
      62     1 O    8    2.657980    1.571190   12.161500      6.00      15.9994
      63     1 O    8    0.570581    5.625340   31.733100      6.00      15.9994
      64     1 O    8   16.250200    8.627350   31.239800      6.00      15.9994
      65     1 O    8   11.268200   11.812700    8.298740      6.00      15.9994
      66     1 O    8   12.050900    1.951830   11.928500      6.00      15.9994
      67     1 O    8    2.016000    8.731160   32.499300      6.00      15.9994
      68     1 O    8   15.607800    2.988240    9.523200      6.00      15.9994
      69     1 O    8    3.167790   13.310100    0.601825      6.00      15.9994
      70     1 O    8    5.349320   13.558100   34.831200      6.00      15.9994
      71     1 O    8   13.302500   12.909300    4.457490      6.00      15.9994
      72     1 O    8    6.993000    7.185460   28.829600      6.00      15.9994
      73     1 O    8    5.156220    5.550840   39.414600      6.00      15.9994
      74     1 O    8    2.456200   10.319600   41.389500      6.00      15.9994
      75     1 O    8    7.431790   11.607300    8.588880      6.00      15.9994
      76     1 O    8   12.333400   10.648700    3.759600      6.00      15.9994
      77     1 O    8    1.598390    6.010160   39.290300      6.00      15.9994
      78     1 O    8   14.365700   11.572400   33.398500      6.00      15.9994
      79     1 O    8    9.615290    6.155220   29.519700      6.00      15.9994
      80     1 O    8    0.035793    0.054699    3.447380      6.00      15.9994
      81     1 O    8    8.668650    3.434010    6.372610      6.00      15.9994
      82     1 O    8   16.751200    2.705180    1.624980      6.00      15.9994
      83     1 O    8   11.892400   11.414800   34.398000      6.00      15.9994
      84     1 O    8    8.265790   12.424300   11.179400      6.00      15.9994
      85     1 O    8    9.442160    7.692930   11.633600      6.00      15.9994
      86     1 O    8    4.930160    8.801030   38.431600      6.00      15.9994
      87     1 O    8   14.375600   10.498800   37.228000      6.00      15.9994
      88     1 O    8   16.701400    7.840410   38.265700      6.00      15.9994
      89     1 O    8   15.443400   10.271300    9.504230      6.00      15.9994
      90     1 O    8    8.711470    9.192360    3.895210      6.00      15.9994
      91     1 O    8    4.974640    5.327760   32.266400      6.00      15.9994
      92     1 O    8    7.674530    5.825210   31.845900      6.00      15.9994
      93     1 O    8    0.327094   12.956700    5.747490      6.00      15.9994
      94     1 O    8    5.772500    9.197230   30.233800      6.00      15.9994
      95     1 O    8   15.933100    7.646510    6.733900      6.00      15.9994
      96     1 O    8    5.173960    1.925290    9.616380      6.00      15.9994
      97     1 O    8    9.925290    1.313620    9.910370      6.00      15.9994
      98     1 O    8   16.590100   13.895500   12.071300      6.00      15.9994
      99     1 O    8   15.516700   11.149100    5.597490      6.00      15.9994
     100     1 O    8   10.625300    9.421390   32.924800      6.00      15.9994
     101     1 O    8    4.821330   11.621500   38.707400      6.00      15.9994
     102     1 O    8    9.737120    5.635140   40.449900      6.00      15.9994
     103     1 O    8    3.070840    2.259830   30.174600      6.00      15.9994
     104     1 O    8    4.445140    8.088450    8.464400      6.00      15.9994
     105     1 O    8    7.720370    4.736020   38.895600      6.00      15.9994
     106     1 O    8   12.912700    1.721840   29.879200      6.00      15.9994
     107     1 O    8    4.572440    4.192900    8.124120      6.00      15.9994
     108     1 O    8   12.168600    0.578895   32.189000      6.00      15.9994
     109     1 O    8    6.088470    9.477090   32.982500      6.00      15.9994
     110     1 O    8    2.242970    6.402030    1.928190      6.00      15.9994
     111     1 O    8    8.615380    3.812990   36.454700      6.00      15.9994
     112     1 O    8    0.926575    9.463620    5.550130      6.00      15.9994
     113     1 O    8    4.874210   13.336500    7.039620      6.00      15.9994
     114     1 O    8   10.592000    5.094080   35.370000      6.00      15.9994
     115     1 O    8    6.893490    9.207480    7.285720      6.00      15.9994
     116     1 O    8    5.740100    1.616790   29.612000      6.00      15.9994
     117     1 O    8    7.602270    3.698170   29.383800      6.00      15.9994
     118     1 O    8    0.676689   13.039400    1.357170      6.00      15.9994
     119     1 O    8   11.079500    9.829990   39.494200      6.00      15.9994
     120     1 O    8    8.420770    6.763400    5.212360      6.00      15.9994
     121     1 O    8   15.039300    3.621310   33.679200      6.00      15.9994
     122     1 O    8   13.835400    9.767910   28.674300      6.00      15.9994
     123     1 O    8    8.946730    1.365260   29.416200      6.00      15.9994
     124     1 O    8    6.836690    8.064850   35.019800      6.00      15.9994
     125     1 O    8    3.175900   13.377700   39.324900      6.00      15.9994
     126     1 O    8   16.345400   10.630100   35.031600      6.00      15.9994
     127     1 O    8    4.245380    7.697390   11.868800      6.00      15.9994
     128     1 O    8    0.397230   10.759500    1.990440      6.00      15.9994
     129     1 O    8    8.628350    0.264553   39.500800      6.00      15.9994
     130     1 O    8   12.636600    5.699030   12.708100      6.00      15.9994
     131     1 O    8    2.109310    2.009570   32.549200      6.00      15.9994
     132     1 O    8   14.021300    2.024770    5.549070      6.00      15.9994
     133     1 O    8    2.145960   12.596400   11.626100      6.00      15.9994
     134     1 O    8    6.838350    8.374440   11.145300      6.00      15.9994
     135     1 O    8   10.434300   11.522500    1.709540      6.00      15.9994
     136     1 O    8   13.389900    8.269810    7.372800      6.00      15.9994
     137     1 O    8   13.340900    3.730720   41.134000      6.00      15.9994
     138     1 O    8    8.102350    5.943180    7.698800      6.00      15.9994
     139     1 O    8    6.786590    3.212310    4.635250      6.00      15.9994
     140     1 O    8   13.568900    6.322930    3.032790      6.00      15.9994
     141     1 O    8    3.142940    4.728440   28.810600      6.00      15.9994
     142     1 O    8    8.104290    4.058260    0.768610      6.00      15.9994
     143     1 O    8   10.085500    5.181820   11.894600      6.00      15.9994
     144     1 O    8    3.167680    7.881460   40.430200      6.00      15.9994
     145     1 O    8   10.680900    7.276310    0.961418      6.00      15.9994
     146     1 O    8    3.166300    0.048700    9.898510      6.00      15.9994
     147     1 O    8    6.262110    5.349030   35.746400      6.00      15.9994
     148     1 O    8   13.678700    1.904760    2.891410      6.00      15.9994
     149     1 O    8   14.571100   13.905800   32.135000      6.00      15.9994
     150     1 O    8    8.311520    3.241330   12.759400      6.00      15.9994
     151     1 O    8    2.944200    0.912585    5.555420      6.00      15.9994
     152     1 O    8    7.393560    9.119060   37.355200      6.00      15.9994
     153     1 O    8   13.912500   14.026200    6.706050      6.00      15.9994
     154     1 O    8    8.567360    8.741760    1.335050      6.00      15.9994
     155     1 O    8    3.917430    9.187670   36.051600      6.00      15.9994
     156     1 O    8   11.312400    0.052900   28.675800      6.00      15.9994
     157     1 O    8   10.923300    0.754574    1.189940      6.00      15.9994
     158     1 O    8   12.880200    7.578150   38.852700      6.00      15.9994
     159     1 O    8   11.192600    5.188240    2.788740      6.00      15.9994
     160     1 O    8   12.198800    9.615790    0.334332      6.00      15.9994
     161     1 O    8    5.929490    3.526990   33.714700      6.00      15.9994
     162     1 O    8    0.808483   11.210900    8.747540      6.00      15.9994
     163     1 O    8    7.503440    0.430648   31.437200      6.00      15.9994
     164     1 O    8   11.954300    4.858530   32.851100      6.00      15.9994
     165     1 O    8   13.648800   10.838500    7.573580      6.00      15.9994
     166     1 O    8    2.533160    7.436340    6.406640      6.00      15.9994
     167     1 O    8   15.518400    7.412370   28.876000      6.00      15.9994
     168     1 O    8    8.628830   11.708900   36.586100      6.00      15.9994
     169     1 O    8    1.501070   10.607200   36.744500      6.00      15.9994
     170     1 O    8   14.071800    1.256190   40.452200      6.00      15.9994
     171     1 O    8    7.535600   13.811100    7.021990      6.00      15.9994
     172     1 O    8   11.687400    8.340560    5.447910      6.00      15.9994
     173     1 O    8    7.782600    1.712250    8.121320      6.00      15.9994
     174     1 O    8   16.719200   13.734700    9.253120      6.00      15.9994
     175     1 O    8   15.332000   10.285800   12.093300      6.00      15.9994
     176     1 O    8   12.078500    4.842540   38.972100      6.00      15.9994
     177     1 O    8    4.344160    3.253480    5.418250      6.00      15.9994
     178     1 O    8    4.073310    3.469700   36.750800      6.00      15.9994
     179     1 O    8   15.071500    5.214920    5.133200      6.00      15.9994
     180     1 O    8    0.314793   14.321900   29.889000      6.00      15.9994
     181     1 O    8    6.160210    9.793130    4.446930      6.00      15.9994
     182     1 O    8   11.198200   14.274400    3.735320      6.00      15.9994
     183     1 O    8    1.628700    8.735160    3.284440      6.00      15.9994
     184     1 O    8    0.725325    3.593290    7.750310      6.00      15.9994
     185     1 O    8    7.092490    2.512960   40.045000      6.00      15.9994
     186     1 O    8    7.705400    1.848350    2.471770      6.00      15.9994
     187     1 O    8   14.536200   13.769700    2.214280      6.00      15.9994
     188     1 O    8    7.828940   11.217000   41.412700      6.00      15.9994
     189     1 O    8    4.462970   10.433500   12.527400      6.00      15.9994
     190     1 O    8    2.671450    4.515790   33.125400      6.00      15.9994
     191     1 O    8   13.256300    9.824310   31.433100      6.00      15.9994
     192     1 O    8    8.606250    0.198218   12.025300      6.00      15.9994
     193     1 O    8    2.535180   11.280700   33.358800      6.00      15.9994
     194     1 O    8   14.774200    5.616500    0.770991      6.00      15.9994
     195     1 O    8    0.080085   14.224600   34.890700      6.00      15.9994
     196     1 O    8   16.731300    7.915650    9.143440      6.00      15.9994
     197     1 O    8    8.572480   12.810600   29.480900      6.00      15.9994
     198     1 O    8    6.311020    5.075520   11.957300      6.00      15.9994
     199     1 O    8   16.500300    0.725134   41.284600      6.00      15.9994
     200     1 O    8   14.144400   12.841300   12.493200      6.00      15.9994
     201     1 O    8    3.601480   12.150600   36.459200      6.00      15.9994
     202     1 O    8    2.124320    7.032290   10.426800      6.00      15.9994
     203     1 O    8   14.388100    0.590475    9.122820      6.00      15.9994
     204     1 O    8   16.620900    3.143350   35.800600      6.00      15.9994
     205     1 O    8   12.802000    7.267840    9.561550      6.00      15.9994
     206     1 O    8    3.131760    8.883080   30.121500      6.00      15.9994
     207     1 O    8    6.164320    1.571790   11.985300      6.00      15.9994
     208     1 O    8    7.398800   10.590000   12.673700      6.00      15.9994
     209     1 O    8    0.761832   12.264700   31.530800      6.00      15.9994
     210     1 O    8    3.614490    6.106200    4.176660      6.00      15.9994
     211     1 O    8    0.551895    5.005530    0.419606      6.00      15.9994
     212     1 O    8    3.124660    2.894550   39.555600      6.00      15.9994
     213     1 O    8   10.692700    1.848250    5.461910      6.00      15.9994
     214     1 O    8    8.168490   13.533000   34.669000      6.00      15.9994
     215     1 O    8   14.063700    3.426900   12.621700      6.00      15.9994
     216     1 O    8   14.861000   12.894400   29.374600      6.00      15.9994
     217     1 O    8    1.105890    5.705290   12.385800      6.00      15.9994
     218     1 O    8   12.639800   10.277900   12.777400      6.00      15.9994
     219     1 O    8    3.687040    4.094420   12.069700      6.00      15.9994
     220     1 O    8   10.045200    0.935185   37.441500      6.00      15.9994
     221     1 O    8    1.833890    5.123930   36.619700      6.00      15.9994
     222     1 O    8    5.711090   13.874000   41.292500      6.00      15.9994
     223     1 O    8    0.254369    4.088200   29.582100      6.00      15.9994
     224     1 O    8   12.003800    9.782060   36.734100      6.00      15.9994
     225     1 O    8   15.496300   12.227900   38.982900      6.00      15.9994
     226     2 H    1    2.267720    0.477995    8.498260      1.00       1.0079
     227     2 H    1    2.028580    0.787754    6.967940      1.00       1.0079
     228     2 H    1   11.980500    7.172000   28.763900      1.00       1.0079
     229     2 H    1   11.622300    8.490880   29.616300      1.00       1.0079
     230     2 H    1    9.929310    8.003750   33.735900      1.00       1.0079
     231     2 H    1    8.882930    6.893540   33.357500      1.00       1.0079
     232     2 H    1   13.145300   14.511800   10.144200      1.00       1.0079
     233     2 H    1   12.911200   13.478800   11.277100      1.00       1.0079
     234     2 H    1    3.037570   12.028700    4.185680      1.00       1.0079
     235     2 H    1    2.691350   11.751000    2.661800      1.00       1.0079
     236     2 H    1    5.950740   13.246800    4.062720      1.00       1.0079
     237     2 H    1    6.527540   11.793900    4.442820      1.00       1.0079
     238     2 H    1    0.345957    3.512020    6.192030      1.00       1.0079
     239     2 H    1    0.845242    2.973580    4.711640      1.00       1.0079
     240     2 H    1   15.224200    7.085050   34.546900      1.00       1.0079
     241     2 H    1   14.850100    5.576810   34.218200      1.00       1.0079
     242     2 H    1   11.671600    4.596930   28.658200      1.00       1.0079
     243     2 H    1   12.296400    3.370570   29.644700      1.00       1.0079
     244     2 H    1    3.155820    6.485020   34.387600      1.00       1.0079
     245     2 H    1    3.324350    7.904330   35.046100      1.00       1.0079
     246     2 H    1   15.846300    1.849370   30.832300      1.00       1.0079
     247     2 H    1   15.961400    1.039960   29.478700      1.00       1.0079
     248     2 H    1   11.871500   13.047200   35.158200      1.00       1.0079
     249     2 H    1   11.462900    0.085173   34.883300      1.00       1.0079
     250     2 H    1   11.564300   11.361800   30.109700      1.00       1.0079
     251     2 H    1   12.522300   12.339100   30.903100      1.00       1.0079
     252     2 H    1   15.000000    8.399450   41.037800      1.00       1.0079
     253     2 H    1   14.188800    7.505620   39.830700      1.00       1.0079
     254     2 H    1    4.550310    7.565060    1.678040      1.00       1.0079
     255     2 H    1    4.013790    8.559400    2.759960      1.00       1.0079
     256     2 H    1   11.191800    7.668590    9.053140      1.00       1.0079
     257     2 H    1    9.741720    7.355490    8.578470      1.00       1.0079
     258     2 H    1    0.756753    7.108750   29.217600      1.00       1.0079
     259     2 H    1    2.182810    7.787990   29.320200      1.00       1.0079
     260     2 H    1    4.119830   11.562400   32.918100      1.00       1.0079
     261     2 H    1    5.533710   10.929400   33.086200      1.00       1.0079
     262     2 H    1   14.130600    8.216960    3.351930      1.00       1.0079
     263     2 H    1   14.810500    9.151350    2.263900      1.00       1.0079
     264     2 H    1   10.562700    3.886010    8.337240      1.00       1.0079
     265     2 H    1   11.795500    4.221820    9.267830      1.00       1.0079
     266     2 H    1    1.885770    1.126790   34.818100      1.00       1.0079
     267     2 H    1    2.862240    2.174370   35.638200      1.00       1.0079
     268     2 H    1    2.422550   10.963800    5.858620      1.00       1.0079
     269     2 H    1    1.972480   12.413200    5.863640      1.00       1.0079
     270     2 H    1   11.313400   12.695300   11.138600      1.00       1.0079
     271     2 H    1   10.053000   12.115200   11.456600      1.00       1.0079
     272     2 H    1   11.988500   13.558300   39.527600      1.00       1.0079
     273     2 H    1   13.079600   12.988300   40.564400      1.00       1.0079
     274     2 H    1   16.555600    8.081110   36.461000      1.00       1.0079
     275     2 H    1    0.261682    7.648940   35.161000      1.00       1.0079
     276     2 H    1    8.084780    8.506290   39.230300      1.00       1.0079
     277     2 H    1    8.948860    7.389030   40.064400      1.00       1.0079
     278     2 H    1   16.801100    2.930900   12.774200      1.00       1.0079
     279     2 H    1    1.240300    2.307000   12.049800      1.00       1.0079
     280     2 H    1    5.452280   12.590800   10.741400      1.00       1.0079
     281     2 H    1    4.737040   11.436500    9.890870      1.00       1.0079
     282     2 H    1   10.130200   12.799700   39.260000      1.00       1.0079
     283     2 H    1   10.916400   11.485300   39.038900      1.00       1.0079
     284     2 H    1   11.853400    4.502040    6.058330      1.00       1.0079
     285     2 H    1   13.129200    3.712670    6.063740      1.00       1.0079
     286     2 H    1   13.341500    6.753430   35.465400      1.00       1.0079
     287     2 H    1   12.440100    7.958190   36.100500      1.00       1.0079
     288     2 H    1    5.830400    6.306350    3.763590      1.00       1.0079
     289     2 H    1    6.459050    5.934230    2.442120      1.00       1.0079
     290     2 H    1    8.285570   12.842800    4.592910      1.00       1.0079
     291     2 H    1    8.802170   13.177600    5.919610      1.00       1.0079
     292     2 H    1    5.425520   12.294200   29.504600      1.00       1.0079
     293     2 H    1    5.349000   12.029600   31.208400      1.00       1.0079
     294     2 H    1   14.775400   11.350500    0.178911      1.00       1.0079
     295     2 H    1   14.678300   12.787100    0.869250      1.00       1.0079
     296     2 H    1    3.460170    9.312240    9.099520      1.00       1.0079
     297     2 H    1    2.936730    9.913570   10.437900      1.00       1.0079
     298     2 H    1    6.028450    6.471760    0.546130      1.00       1.0079
     299     2 H    1    7.315420    5.628240    0.589801      1.00       1.0079
     300     2 H    1    1.385420    2.135990   39.253100      1.00       1.0079
     301     2 H    1    0.993945    0.792236   38.412000      1.00       1.0079
     302     2 H    1   10.935900    5.673610    4.396800      1.00       1.0079
     303     2 H    1   11.111900    6.810810    5.497440      1.00       1.0079
     304     2 H    1   12.281400   14.472000    7.471730      1.00       1.0079
     305     2 H    1   11.211600   13.613200    8.140250      1.00       1.0079
     306     2 H    1    0.421841    9.244220   38.849000      1.00       1.0079
     307     2 H    1    1.392380    9.997740   39.935000      1.00       1.0079
     308     2 H    1    1.891310   14.332400   28.936200      1.00       1.0079
     309     2 H    1    2.909780    0.904995   29.078300      1.00       1.0079
     310     2 H    1    7.633040    9.961170   32.046700      1.00       1.0079
     311     2 H    1    8.578270   10.042300   30.632800      1.00       1.0079
     312     2 H    1   15.198700    4.822340   29.985800      1.00       1.0079
     313     2 H    1   13.675500    5.041690   29.600300      1.00       1.0079
     314     2 H    1    3.491550    1.437890   33.337700      1.00       1.0079
[...]
    812      5      Pt         -0.00036650     0.00028570    -0.00188918
    813      5      Pt         -0.00007941     0.00019191    -0.00093396
    814      5      Pt          0.00014390    -0.00013883    -0.00190647
    815      5      Pt          0.00023313     0.00007083    -0.00130971
    816      5      Pt          0.00035088     0.00051096     0.00074074
    817      5      Pt         -0.00112161    -0.00054205     0.00056771
    818      5      Pt         -0.00006851    -0.00005849     0.00034044
    819      5      Pt         -0.00100157     0.00021905     0.00049197
    820      5      Pt          0.00147363    -0.00008916     0.00187048
    821      5      Pt          0.00087649     0.00029898    -0.00001517
    822      5      Pt         -0.00019341     0.00021282     0.00028408
    823      5      Pt          0.00024036    -0.00096421    -0.00021145
    824      5      Pt          0.00128091    -0.00007099     0.00127782
    825      5      Pt         -0.00070037     0.00035077     0.00079692
    826      5      Pt         -0.00002097     0.00049778    -0.00165175
    827      5      Pt         -0.00030237     0.00007221     0.00038886
    828      5      Pt          0.00030776    -0.00050638     0.00000705
    829      5      Pt         -0.00036923    -0.00053304     0.00011700
    830      5      Pt          0.00101152    -0.00026610    -0.00064864
    831      5      Pt         -0.00003583    -0.00000831    -0.00116720
    832      5      Pt          0.00001026     0.00012774    -0.00006313
    833      5      Pt          0.00001558    -0.00012348     0.00014822
    834      5      Pt          0.00086446     0.00016943     0.00087372
    835      5      Pt         -0.00061728     0.00019181    -0.00036366
    836      5      Pt         -0.00055412    -0.00011714    -0.00059828
    837      5      Pt          0.00033428    -0.00085816     0.00134046
    838      5      Pt          0.00010850     0.00004158     0.00016155
    839      5      Pt         -0.00069084    -0.00070949    -0.00079303
    840      5      Pt         -0.00072185    -0.00006665    -0.00650628
    841      5      Pt         -0.00031408    -0.00034818    -0.00540630
    842      5      Pt          0.00054191    -0.00020779    -0.00620024
    843      5      Pt         -0.00046274     0.00059455    -0.00673821
    844      5      Pt          0.00008117    -0.00037785    -0.00557410
    845      5      Pt          0.00023651     0.00089116    -0.00690901
    846      5      Pt          0.00121142     0.00032016    -0.00498311
    847      5      Pt          0.00111679    -0.00039842    -0.00784710
    848      5      Pt          0.00006838    -0.00014222    -0.00735185
    849      5      Pt         -0.00063196    -0.00120592    -0.00789781
    850      5      Pt          0.00059010    -0.00018954    -0.00759041
    851      5      Pt         -0.00084348    -0.00103099    -0.00761133
    852      5      Pt          0.00027260     0.00095307    -0.00517354
    853      5      Pt         -0.00043127    -0.00136526    -0.00474672
    854      5      Pt          0.00039887    -0.00089281    -0.00687219
    855      5      Pt         -0.00039757     0.00036157    -0.00579103
    856      5      Pt          0.00031194     0.00001434    -0.00896901
    857      5      Pt          0.00057688    -0.00055499    -0.00542590
    858      5      Pt          0.00071137    -0.00089412    -0.00582328
    859      5      Pt         -0.00015740     0.00073981    -0.00646285
    860      5      Pt          0.00064148    -0.00004354    -0.00266633
    861      5      Pt          0.00080219     0.00039010    -0.00780036
    862      5      Pt         -0.00074629    -0.00025113    -0.00648138
    863      5      Pt         -0.00245859     0.00064814    -0.00293502
    864      5      Pt          0.00114773     0.00023932    -0.00792266
    865      5      Pt          0.00039499    -0.00017233    -0.00623181
    866      5      Pt         -0.00054142    -0.00057423    -0.00704044
    867      5      Pt         -0.00075949    -0.00025260    -0.00672866
    868      5      Pt         -0.00030320    -0.00072793    -0.00562139
    869      5      Pt         -0.00034283    -0.00039138    -0.00550792
    870      5      Pt          0.00039360    -0.00027521    -0.00437030
    871      5      Pt         -0.00088155     0.00026042    -0.00523266
    872      5      Pt          0.00011467     0.00005133    -0.00842470
    873      5      Pt          0.00070476     0.00070038    -0.00536550
    874      5      Pt          0.00032542    -0.00022469    -0.00568415
    875      5      Pt          0.00052663     0.00045780    -0.00867571
    876      5      Pt         -0.00309517     0.00010750     0.00422313
    877      5      Pt          0.00184757    -0.00106185     0.01334450
    878      5      Pt          0.00195306    -0.00082358     0.00722534
    879      5      Pt         -0.00489126    -0.00202521     0.00421250
    880      5      Pt         -0.00015386    -0.00464625     0.00484142
    881      5      Pt          0.00377639     0.00099684     0.00405902
    882      5      Pt         -0.00320985    -0.00046838     0.00329985
    883      5      Pt          0.00286106    -0.00045477     0.00158416
    884      5      Pt         -0.00076892    -0.00103761     0.00349301
    885      5      Pt          0.00085274     0.00376966     0.00293786
    886      5      Pt          0.00204878     0.00219066     0.00325570
    887      5      Pt         -0.00018070    -0.00069643     0.00734940
    888      5      Pt         -0.00340976    -0.00452851     0.00348244
    889      5      Pt          0.00136686    -0.00775185     0.00550992
    890      5      Pt          0.00243426    -0.00344081     0.00049792
    891      5      Pt          0.00194275    -0.00263121     0.00222634
    892      5      Pt         -0.00027558    -0.00012661     0.00663330
    893      5      Pt         -0.00020168    -0.00279275     0.00551290
    894      5      Pt          0.00246350     0.00193721     0.00522179
    895      5      Pt          0.00146578     0.00331621     0.00137489
    896      5      Pt         -0.00395210    -0.00081506     0.00955388
    897      5      Pt          0.00361154    -0.00183137     0.00221478
    898      5      Pt         -0.00357163    -0.00474056     0.00359694
    899      5      Pt          0.00079639    -0.00462487     0.00780224
    900      5      Pt          0.00333442     0.00248958     0.00418192
    901      5      Pt          0.00055473     0.00129963     0.00564645
    902      5      Pt         -0.00255504     0.00216383     0.00577599
    903      5      Pt          0.00058717    -0.00230596     0.00697602
    904      5      Pt         -0.00046844    -0.00017467    -0.00150392
    905      5      Pt         -0.00235402     0.00150397    -0.00161762
    906      5      Pt         -0.00201625    -0.00364804     0.00610753
    907      5      Pt          0.00232287    -0.00319943     0.00782287
    908      5      Pt         -0.00298284     0.00093771     0.00681448
    909      5      Pt          0.00184295    -0.00105312     0.00085150
    910      5      Pt         -0.00176144    -0.00004123     0.00165272
    911      5      Pt          0.00372451    -0.00066225    -0.00083971
 SUM OF ATOMIC FORCES           0.00086442    -0.00072429     0.00531965     0.00543787

 -------------------------------------------------------------------------------
 -                                                                             -
 -                                DBCSR STATISTICS                             -
 -                                                                             -
 -------------------------------------------------------------------------------
 COUNTER                                    TOTAL       BLAS       SMM       ACC
 flops     5 x    32 x     5         100454899200       0.0%    100.0%      0.0%
 flops     5 x    32 x    13         117824636800       0.0%    100.0%      0.0%
 flops    13 x    32 x     5         117824636800       0.0%    100.0%      0.0%
 flops    20 x    32 x    13         125934415360       0.0%    100.0%      0.0%
 flops    13 x    32 x    20         125934415360       0.0%    100.0%      0.0%
 flops    13 x    32 x    13         127684761984       0.0%    100.0%      0.0%
 flops    20 x    32 x     5         132806668800       0.0%    100.0%      0.0%
 flops     5 x    32 x    20         132806668800       0.0%    100.0%      0.0%
 flops     5 x     5 x   320         171725952000       0.0%    100.0%      0.0%
 flops     5 x    13 x   320         200685721600       0.0%    100.0%      0.0%
 flops    13 x     5 x   320         200869094400       0.0%    100.0%      0.0%
 flops    20 x    13 x   320         214128844800       0.0%    100.0%      0.0%
 flops    13 x    20 x   320         215064678400       0.0%    100.0%      0.0%
 flops    13 x    13 x   320         219511152640       0.0%    100.0%      0.0%
 flops     5 x    20 x   320         226224640000       0.0%    100.0%      0.0%
 flops    20 x     5 x   320         226390016000       0.0%    100.0%      0.0%
 flops    20 x    32 x    20         532699545600       0.0%    100.0%      0.0%
 flops    20 x    20 x   320         911941632000       0.0%    100.0%      0.0%
 flops inhomo. stacks                464533504000     100.0%      0.0%      0.0%
 flops total                         4.565046E+12      10.2%     89.8%      0.0%
 flops max/rank                     77.362138E+09      14.2%     85.8%      0.0%
 matmuls inhomo. stacks                   7851640     100.0%      0.0%      0.0%
 matmuls total                          252163394       3.1%     96.9%      0.0%
 number of processed stacks                343244       5.5%     94.5%      0.0%
 average stack size                                   412.8     753.5       0.0
 marketing flops                    10.421756E+12
 -------------------------------------------------------------------------------
 # multiplications                             26
 max memory usage/rank             932.139008E+06
 # max total images/rank                        1
 # max 3D layers                                1
 # MPI messages exchanged                   23296
 MPI messages size (bytes):
  total size                        82.642592E+09
  min size                           2.184448E+06
  max size                           7.049392E+06
  average size                       3.547501E+06
 MPI breakdown and total messages size (bytes):
             size <=      128                   0                        0
       128 < size <=     8192                   0                        0
      8192 < size <=    32768                   0                        0
     32768 < size <=   131072                   0                        0
    131072 < size <=  4194304               20160              61001095680
   4194304 < size <= 16777216                3136              21641497976
  16777216 < size                               0                        0
 -------------------------------------------------------------------------------
 -                                                                             -
 -                      DBCSR MESSAGE PASSING PERFORMANCE                      -
 -                                                                             -
 -------------------------------------------------------------------------------
 ROUTINE             CALLS      AVE VOLUME [Bytes]
 MP_Group               26
 MP_Bcast               19                     12.
 MP_Allreduce          207                     12.
 MP_Alltoall           667                1805159.
 MP_Wait              2080
 MP_ISend              832                1563420.
 MP_IRecv              832                1563924.
 MP_Memory            1762
 -------------------------------------------------------------------------------

 MEMORY| Estimated peak process memory [MiB]                                 908

 -------------------------------------------------------------------------------
 ----                             MULTIGRID INFO                            ----
 -------------------------------------------------------------------------------
 count for grid        1:        1329888          cutoff [a.u.]          400.00
 count for grid        2:        2416419          cutoff [a.u.]          133.33
 count for grid        3:        1701806          cutoff [a.u.]           44.44
 count for grid        4:        1338902          cutoff [a.u.]           14.81
 count for grid        5:         643372          cutoff [a.u.]            4.94
 total gridlevel count  :        7430387

 -------------------------------------------------------------------------------
 -                                                                             -
 -                         MESSAGE PASSING PERFORMANCE                         -
 -                                                                             -
 -------------------------------------------------------------------------------

 ROUTINE             CALLS      AVE VOLUME [Bytes]
 MP_Group                5
 MP_Bcast             4171                 324414.
 MP_Allreduce         2689                  70639.
 MP_Sync                 6
 MP_Alltoall           487               25408838.
 MP_SendRecv        121716                1677011.
 MP_ISendRecv         6804                 135893.
 MP_Wait              8780
 MP_ISend             1672                1397005.
 MP_IRecv             1672                1397005.
 MP_Recv               156                2499840.
 -------------------------------------------------------------------------------


 -------------------------------------------------------------------------------
 -                                                                             -
 -                           R E F E R E N C E S                               -
 -                                                                             -
 -------------------------------------------------------------------------------
 
 CP2K version 7.1, the CP2K developers group (2019).
 CP2K is freely available from https://www.cp2k.org/ .

 Schuett, Ole; Messmer, Peter; Hutter, Juerg; VandeVondele, Joost. 
 Electronic Structure Calculations on Graphics Processing Units, John
 Wiley & Sons, Ltd, 173-190 (2016). 
 GPU-Accelerated Sparse Matrix-Matrix Multiplication for
 Linear Scaling Density Functional Theory.
 https://dx.doi.org/10.1002/9781118670712.ch8

 Borstnik, U; VandeVondele, J; Weber, V; Hutter, J. 
 PARALLEL COMPUTING, 40 (5-6), 47-58 (2014). 
 Sparse matrix multiplication: The distributed block-compressed sparse
 row library.
 https://dx.doi.org/10.1016/j.parco.2014.03.012

 Hutter, J; Iannuzzi, M; Schiffmann, F; VandeVondele, J. 
 WIREs Comput Mol Sci., 4 (1), 15-25 (2014). 
 CP2K: atomistic simulations of condensed matter systems.
 https://dx.doi.org/10.1002/wcms.1159

 Marek, A; Blum, V; Johanni, R; Havu, V; Lang, B; Auckenthaler, T;
 Heinecke, A; Bungartz, H; Lederer, H. 
 Journal of Physics: Condensed Matter, 26 (21), (2014). 
 The ELPA library: scalable parallel eigenvalue solutions for
 electronic structure
 theory and computational science.
 https://dx.doi.org/10.1088/0953-8984/26/21/213201

 Grimme, S; Ehrlich, S; Goerigk, L. 
 JOURNAL OF COMPUTATIONAL CHEMISTRY, 32, 1456 (2011). 
 Effect of the damping function in dispersion corrected density functional theory.
 https://dx.doi.org/10.1002/jcc.21759

 Grimme, S; Antony, J; Ehrlich, S; Krieg, H. 
 JOURNAL OF CHEMICAL PHYSICS, 132 (15), 154104 (2010). 
 A consistent and accurate ab initio parametrization of density
 functional dispersion correction (DFT-D) for the 94 elements H-Pu.
 https://dx.doi.org/10.1063/1.3382344

 VandeVondele, J; Hutter, J. 
 JOURNAL OF CHEMICAL PHYSICS, 127 (11), 114105 (2007). 
 Gaussian basis sets for accurate calculations on molecular systems in
 gas and condensed phases.
 https://dx.doi.org/10.1063/1.2770708

 Krack, M. 
 THEORETICAL CHEMISTRY ACCOUNTS, 114 (1-3), 145-152 (2005). 
 Pseudopotentials for H to Kr optimized for gradient-corrected
 exchange-correlation functionals.
 https://dx.doi.org/10.1007/s00214-005-0655-y

 VandeVondele, J; Krack, M; Mohamed, F; Parrinello, M; Chassaing, T;
 Hutter, J. COMPUTER PHYSICS COMMUNICATIONS, 167 (2), 103-128 (2005). 
 QUICKSTEP: Fast and accurate density functional calculations using a
 mixed Gaussian and plane waves approach.
 https://dx.doi.org/10.1016/j.cpc.2004.12.014

 Frigo, M; Johnson, SG. 
 PROCEEDINGS OF THE IEEE, 93 (2), 216-231 (2005). 
 The design and implementation of FFTW3.
 https://dx.doi.org/10.1109/JPROC.2004.840301

 Hartwigsen, C; Goedecker, S; Hutter, J. 
 PHYSICAL REVIEW B, 58 (7), 3641-3662 (1998). 
 Relativistic separable dual-space Gaussian pseudopotentials from H to Rn.
 https://dx.doi.org/10.1103/PhysRevB.58.3641

 Lippert, G; Hutter, J; Parrinello, M. 
 MOLECULAR PHYSICS, 92 (3), 477-487 (1997). 
 A hybrid Gaussian and plane wave density functional scheme.
 https://dx.doi.org/10.1080/002689797170220

 Perdew, JP; Burke, K; Ernzerhof, M. 
 PHYSICAL REVIEW LETTERS, 77 (18), 3865-3868 (1996). 
 Generalized gradient approximation made simple.
 https://dx.doi.org/10.1103/PhysRevLett.77.3865

 Goedecker, S; Teter, M; Hutter, J. 
 PHYSICAL REVIEW B, 54 (3), 1703-1710 (1996). 
 Separable dual-space Gaussian pseudopotentials.
 https://dx.doi.org/10.1103/PhysRevB.54.1703


 -------------------------------------------------------------------------------
 -                                                                             -
 -                                T I M I N G                                  -
 -                                                                             -
 -------------------------------------------------------------------------------
 SUBROUTINE                       CALLS  ASD         SELF TIME        TOTAL TIME
                                MAXIMUM       AVERAGE  MAXIMUM  AVERAGE  MAXIMUM
 CP2K                                 1  1.0    0.029    0.031 2670.180 2670.227
 qs_forces                            1  2.0    0.001    0.001 2669.401 2669.447
 qs_energies                          1  3.0    0.000    0.000 2661.226 2661.268
 scf_post_calculation_gpw             1  4.0    0.000    0.002 2488.300 2488.345
 get_localization_info                1  5.0    0.000    0.000 2487.075 2487.125
 qs_loc_driver                        1  6.0    0.000    0.000 2487.075 2487.125
 optimize_loc_berry                   1  7.0    0.069    0.074 2487.053 2487.097
 jacobi_rot_para                      1  8.0 2081.403 2215.310 2485.333 2485.377
 mp_allgather_d23                 60732  9.0  216.038  321.811  216.038  321.811
 mp_sendrecv_zm3                  60732  9.0  173.619  222.717  173.619  222.717
 scf_env_do_scf                       1  4.0    0.000    0.000  165.660  165.734
 scf_env_do_scf_inner_loop           17  5.0    0.001    0.003  165.654  165.728
 qs_scf_new_mos                      17  6.0    0.000    0.000   84.268   84.375
 eigensolver                         17  7.0    0.001    0.002   79.719   79.789
 -------------------------------------------------------------------------------

 The number of warnings for this run is : 0
 
 -------------------------------------------------------------------------------
  **** **** ******  **  PROGRAM ENDED AT                 2024-11-15 09:39:25.166
 ***** ** ***  *** **   PROGRAM RAN ON                                   c53-003
 **    ****   ******    PROGRAM RAN BY                                     jxzhu
 ***** **    ** ** **   PROGRAM PROCESS ID                                374995
  **** **  *******  **  PROGRAM STOPPED IN /data/jxzhu/nnp/dp_workdir/feb7ecd3c8
                                           91246149cf6c369e4f48b847fff05a/calc/t
                                           ask.000.000000
