192
Lattice="12.42 0.0 0.0 0.0 12.42 0.0 0.0 0.0 12.42" Properties=species:S:1:pos:R:3:forces:R:3 i=1 time=0.0 energy=-29975.163542721042 pbc="T T T"
O        4.19996000       0.41972800       0.78111100      -0.72643818       0.96208176      -0.60596603
H        3.58560000       1.17149000       0.55378400       0.72737262      -0.98687307       0.35591257
H        4.67988000       0.21835500      12.37600000      -0.17916465      -0.04548378       0.40010517
O       11.98990000       9.98184000      10.24230000      -1.37699176      -2.04691658      -0.15729467
H       11.61770000       9.48291000      11.00720000       0.00979440      -0.07561413      -0.92040010
H        0.11508200      10.56950000      10.72350000       1.41735110       1.90880551       0.87906231
O        9.27572000       3.03362000       6.96314000      -0.49690198      -0.51140117      -1.04929117
H        8.34742000       2.84249000       7.14677000      -0.39466962       0.17460241       0.16040124
H        9.69922000       3.14259000       7.80712000       0.53617710       0.35681078       1.43860556
O        7.20048000       2.93099000       2.91456000       1.43961172      -0.39346200       1.07730832
H        7.50681000       3.63761000       3.53621000      -0.88488278       0.34245857      -0.76722674
H        6.37461000       3.09011000       2.45283000      -0.47904274       1.03637625      -0.22288751
O        4.67676000       9.18077000       2.59239000      -0.35690277      -0.37683945       0.41523410
H        4.76421000       9.98263000       3.15609000       0.11264047      -0.04756435      -1.13571643
H        4.88488000       9.35231000       1.65153000      -0.01135111       0.50802654       0.38906471
O       10.03240000       6.96034000       3.97849000       0.04775810       0.46605790       0.44141302
H       10.71710000       7.38529000       4.51549000       0.45138617      -0.45882049       0.64121432
H        9.75806000       7.76584000       3.52632000      -0.24597901       0.15324256      -0.66279810
O       11.04060000       4.91909000       2.54090000       0.00485431       0.20614077       0.06251275
H       10.99510000       5.51351000       3.31526000      -0.13653883       0.35267317      -0.38376139
H       10.98110000       4.07517000       2.99047000       0.00633747      -0.96565285      -0.06428422
O       10.91960000       2.02256000       3.71398000      -0.40902402      -1.44133681      -0.95646752
H       10.80700000       1.12154000       3.21984000       0.51211845       1.66338380       0.52356089
H       10.15800000       1.99497000       4.30314000       0.01163830      -0.01821636       0.31154470
O        1.67102000       8.75488000       8.42922000      -0.29501689      -0.02233993      -0.21203313
H        1.21183000       8.45242000       7.63634000      -0.19540717      -0.19132119      -0.47204696
H        0.96450000       9.28244000       8.83164000       0.09486487       0.08468923       0.70020867
O        2.78734000      10.95500000      10.49000000       0.36000114      -1.59477512       0.72655932
H        2.17497000      11.45320000      11.09880000       0.45998188      -0.87597871      -0.32136613
H        2.91303000       9.97806000      10.82680000      -0.93763941       2.39562527      -0.59969321
O        6.60394000       8.87118000       5.70222000      -0.89075305       0.99826428       0.39883226
H        6.00000000       9.62448000       6.00268000       1.64566798      -1.47132534      -0.38930314
H        7.53351000       9.10755000       5.94052000      -0.90941812       0.46806889      -0.07548220
O        3.77875000       7.16075000       6.29764000       0.74400872      -0.88072790      -0.41593856
H        4.70029000       6.76357000       6.33971000      -1.22209874       0.89471224      -0.05483051
H        3.75706000       8.16341000       6.34924000       0.47312324      -0.16104917       0.07538825
O        0.81817600      10.85940000       2.19890000      -0.07472781       0.09929121       0.82846207
H        1.65685000      10.98410000       2.66598000       0.04253349      -0.09287541      -0.12229133
H        0.15532500      11.09480000       2.91134000       0.27566958      -0.31419861      -0.96128657
O        0.38803000       4.62423000       7.55852000      -0.20482794      -0.23238869      -0.34740238
H        1.12916000       5.24318000       7.50860000       0.10852400      -0.18610083       0.32830762
H        0.07942400       4.61971000       8.47223000       0.09776891       0.38737373       0.04878705
O       10.57740000       3.37331000       9.47276000       2.35912492      -0.06676134       0.23014417
H       10.29850000       4.12343000      10.06110000       0.00524529      -0.55548237      -0.19124611
H       11.56560000       3.18734000       9.66362000      -2.53584734       0.54338707      -0.17953161
O        0.45235900       8.49666000       0.63961800      -2.12157086      -0.29071267       0.44425284
H        0.41901500       9.37884000       1.07950000      -0.04207331      -0.39900946       0.07044666
H       11.88270000       8.17153000       0.55363600       1.58299038       0.78788630       0.02273851
O        6.97717000       6.35895000       9.39664000       1.49881848       2.06526656      -1.09865517
H        6.81763000       7.34722000       9.46416000      -0.10810252      -1.24214694      -0.12137437
H        6.34789000       5.91605000       9.94214000      -1.54674013      -0.39451559       0.98243325
O       10.24630000       8.13707000      12.25300000      -0.21651847       0.49858678       0.13942145
H        9.56347000       7.50305000       0.14650400       0.57667179       0.21199879       0.06877635
H        9.78928000       9.00980000      12.13770000       0.10174168      -0.64837650      -0.09853838
O        9.14566000      10.27240000       5.94191000       0.58740048       0.59112282       1.07716832
H        9.57187000      10.26860000       6.86024000      -0.72954455      -0.29764535      -1.04178281
H        9.03206000      11.25490000       5.80673000       0.00079444      -0.57912833       0.09611144
O        4.22053000       6.47660000       0.89453800       1.69685322      -0.21677990      -0.33364450
H        3.46249000       6.71153000       1.42300000      -1.09024409       0.03744125       0.61653500
H        4.95591000       6.55844000       1.55371000      -0.33618769      -0.12127425      -0.37716254
O        6.71061000       0.89059400       4.49531000       0.84472635       0.83723208       0.95479911
H        5.90518000       0.51457400       4.13194000      -0.67384403      -0.41809667      -0.54803803
H        6.85866000       1.76740000       4.04644000      -0.30101395      -0.59079849      -0.42527248
O        8.81480000       2.10524000       0.84421000      -0.42820749       1.28840311       1.70502466
H        8.17000000       2.51874000       0.21218000       0.25945285      -0.21492532       0.39340809
H        8.61261000       2.59368000       1.74630000       0.14472822      -1.35625780      -2.37909432
O        1.85201000       1.69554000       6.29479000      -0.21816466      -0.57841671       0.06228551
H        1.00996000       1.49354000       6.77652000       0.36048583       0.09703604      -0.32949853
H        1.58267000       2.34217000       5.58991000      -0.04851750       0.12251991      -0.04101119
O       11.27830000       1.56729000      11.96850000       0.41680784       2.02743533       1.33494983
H       10.57440000       1.90579000       0.20037200       0.17609803      -0.95333060      -0.99228704
H       11.88560000       2.38256000      12.03140000      -0.65703241      -1.15316175      -0.50051053
O        3.48356000       2.82991000      10.85920000       1.01931268      -0.79456023      -2.21479844
H        3.45788000       2.20697000      10.05730000      -0.08142973       1.32313179       1.58824021
H        4.19407000       3.47281000      10.55560000      -1.07903647      -0.59517003       0.63756543
O        2.31520000      11.65450000       5.03236000      -0.28831355       0.12030631       0.63310643
H        1.36838000      11.35380000       5.13103000       0.62756547       0.57699935      -0.19376800
H        2.36471000       0.15090700       5.44749000      -0.60817874      -0.70272497      -0.26851997
O        7.82408000       5.23121000       4.49882000       1.33120761       0.35266949       1.76488448
H        8.71110000       5.60371000       4.81697000      -1.02599694      -0.27663289      -1.32472534
H        7.38340000       5.19984000       5.39339000      -0.29267447       0.03787350      -0.53292452
O        2.99304000       5.98903000       8.42733000      -2.70724943       1.18292856       1.02313478
H        3.11385000       6.62646000       7.67940000       1.11313019      -0.29535246      -0.43732405
H        2.23033000       6.49734000       8.87001000       1.41171775      -1.09372712      -0.16118585
O        4.50575000      11.96550000       3.38106000      -0.85925551      -1.21101937       1.94460859
H        3.79017000      11.65240000       4.02609000       0.86065257       0.83363054      -0.87618464
H        4.00404000      12.16750000       2.58833000       0.15083930       0.47917498      -0.87130307
O       10.91970000       7.55381000       8.30381000      -1.06737173      -1.53410015      -0.81359171
H       10.36070000       6.85098000       7.85496000       0.75934831       1.08943994       0.99412083
H       10.34470000       8.37342000       8.35873000       0.03308474      -0.04069299       0.02017712
O       12.17470000       7.98249000       5.97295000       1.23957982      -0.04914762      -0.82657859
H       11.68670000       7.62584000       6.70788000      -0.73173452       0.06238629       1.13310672
H        0.40746600       7.25539000       5.79576000      -0.52095491       0.45406241      -0.71095321
O        9.15954000       0.53634100       5.64113000      -1.18895465      -0.15144225      -1.55131979
H        8.32428000       0.70228800       5.06383000       1.09588867      -0.32794904       1.41352720
H        9.17928000       1.16902000       6.37161000      -0.17038898       0.11212204      -0.11422247
O       12.22770000       6.33451000      10.44560000       1.58544731       2.18577266       0.76860365
H        0.44237000       6.95816000      10.95960000      -1.34232701      -1.56112285      -1.24046766
H       11.78140000       6.99226000       9.84159000       0.07715802      -0.89378996       0.29479991
O        9.57164000       9.65472000       3.20769000      -1.62958350      -1.54188879      -0.12185227
H        8.81018000       9.10492000       2.78507000       1.04857329       1.53748440       0.20835195
H        9.35971000       9.61542000       4.16824000       0.23178567       0.43674746      -0.20517607
O        2.37829000       7.47170000       2.61910000       0.29213206      -1.72590100       1.12031324
H        1.73567000       7.81936000       2.01447000      -0.59157190       1.00859705      -0.73812591
H        3.17501000       8.00278000       2.74884000      -0.07179369       1.05835205      -0.22283119
O       11.97430000      10.89410000       4.79334000       0.29848237      -0.85704273       0.71800647
H       11.82970000      10.09130000       5.36263000       0.04007954       0.76819349      -0.83978990
H       11.18820000      11.44070000       4.91333000      -0.00769029       0.07659032       0.21893963
O        1.05207000       3.37752000       4.43053000       0.73113204       0.72901617      -0.21670722
H        1.14726000       4.35813000       4.48939000       0.00075026      -0.47167745       0.36101185
H        0.11189600       3.23209000       4.33792000      -0.70437398      -0.36143695      -0.13785041
O        2.41366000       8.07691000      11.47710000       0.05223154       0.49184487       0.52498461
H        1.65065000       8.24585000      12.12680000       0.73406246      -0.00311707      -0.70196539
H        3.21574000       8.16021000      12.02510000      -0.31110110      -0.40223800      -0.17225388
O        6.90405000       3.27787000      11.34200000       0.96155661       0.99270917      -0.57766578
H        6.23157000       3.77328000      11.84040000      -0.35098402      -0.53559663       0.34507499
H        7.53758000       4.02782000      11.05800000      -0.36599604      -1.17863413       0.31175804
O        9.84735000       0.07241600       9.93125000       1.31257903       2.13547051       0.77439139
H       10.43830000       0.78232100      10.37550000      -1.07756762      -1.52234190      -0.35889167
H        9.00258000       0.56593200       9.87085000      -0.12823868      -0.38639767      -0.29644857
O        9.86577000       9.90015000       8.55953000       1.76840570       0.16550237       1.17216352
H       10.73420000      10.10160000       9.12287000      -1.96346056      -0.13364907      -1.05285518
H        9.15330000       9.93693000       9.23031000       0.16694474      -0.02483324      -0.18813839
O        6.35098000       5.38508000       6.80840000      -0.36484394      -0.52770084      -0.95641274
H        6.57328000       5.77923000       7.65559000       0.33878956       0.28673582       0.90287148
H        6.24058000       4.43183000       6.96589000      -0.04572534       0.14657597       0.14186544
O        4.60543000       5.39860000      10.51460000      -0.76578278       0.48763225      -1.44278277
H        4.07054000       5.62674000      11.26990000       0.01527022       0.18276359       1.12220868
H        3.97083000       5.72394000       9.78883000       1.15933738      -0.55031696       0.30619973
O       11.72540000       1.07853000       7.24833000      -0.11852856      -0.15748800       2.58277950
H       11.12020000       1.76595000       6.92228000       0.15877454      -0.18236433       0.28191279
H       11.57350000       1.00780000       8.26850000       0.00087656       0.21796896      -2.82793109
O        5.05560000       3.83498000       0.97579400       0.62238716       0.98653947       0.14388253
H        4.54569000       4.68408000       0.88115700       0.16152187      -0.82699482       0.26873793
H        4.46639000       3.09001000       0.89636900      -0.76928008      -0.22697916      -0.19346896
O        8.84366000       4.97414000      10.86180000       0.42510326       0.91541497       0.47771693
H        8.48737000       5.73794000      10.32430000       0.24536009      -0.59222574       0.79000568
H        9.00579000       5.26727000      11.81950000      -0.47707793       0.03506889      -1.35391564
O        6.11860000       9.27610000       9.02579000       1.11519781       0.32268862       0.96676968
H        5.30672000       9.28087000       8.53698000      -0.79304283       0.17645432      -0.53523830
H        6.14439000      10.12780000       9.52950000      -0.32432295      -0.75200664      -0.42972285
O        5.88857000       6.67337000       3.21857000       0.71743252      -0.36295874       0.61501423
H        5.36681000       7.25944000       3.77770000       0.10463862       0.12525013       0.16142621
H        6.64234000       6.32996000       3.79470000      -0.83385843       0.11518813      -0.64958481
O        0.19486800       4.08441000      12.27860000      -0.48210177       1.14842444      -0.15135864
H       11.93270000       4.50396000       0.44643500       0.84200228      -0.31453121      -0.48415937
H        0.42382600       4.80041000      11.61880000      -0.57043324      -1.03622608       0.84925891
O        8.93651000      10.29140000      11.12290000      -1.85536905       0.02295403       1.48514137
H        8.17764000      10.54940000      11.76740000       1.95440594      -0.22360300      -1.55063928
H        9.34065000      11.10500000      10.73230000      -0.21378554       0.47376947       0.54788281
O        7.44763000       8.35861000       1.72990000       0.07838726       0.47517410       0.26355951
H        6.92161000       9.02417000       1.24261000       0.48177812      -0.20151809      -0.39985506
H        6.80277000       8.08906000       2.40620000      -0.09135622      -0.49570718       0.21440188
O        5.72148000       9.34822000      12.21340000      -0.37603553      -2.40709964       0.28329262
H        5.56518000       8.48433000      11.68650000       0.43822944       2.61860699       0.83301448
H        5.66554000      10.18540000      11.70890000      -0.22329738      -0.26803628      -0.67573185
O        8.02515000      11.52380000       1.49666000      -0.55092259      -0.59148208       0.64688629
H        7.62011000      11.42740000       2.39515000       0.50738002       0.46746366      -1.17964125
H        8.24370000       0.03568200       1.35610000      -0.19279463       0.35674423       0.23773746
O        8.89893000       5.95899000       1.04483000       0.50885346      -0.57778742      -0.46356883
H        9.39867000       5.54681000       1.76529000       0.81399547      -0.33718772       0.03405867
H        8.27557000       6.50184000       1.50592000      -1.12215798       0.89379356       0.16190826
O        5.38680000      11.49450000      10.76040000       0.51903059       1.01676023      -0.26509302
H        4.43533000      11.54960000      10.52740000      -0.47995393      -0.31852482      -0.01972258
H        5.84101000      12.30550000      10.41980000       0.10532686      -0.51797855       0.05933482
O       10.77630000      12.05700000       2.24445000      -1.14474573      -0.83851341       1.21410144
H       10.82170000      12.07210000       1.28263000      -0.36529100      -0.08302581       0.04630318
H       10.04840000      11.39090000       2.53634000       1.41848814       0.93681740      -1.08963134
O       10.86550000       4.80155000       5.56866000       1.42711588       0.51158204       0.82439567
H       10.09360000       4.27173000       5.80176000       0.29842141      -0.25279686       0.58809344
H       11.56270000       4.77266000       6.33179000      -1.59284996      -0.29666712      -1.39528766
O        3.72873000       2.81002000       7.72419000       2.55972219      -1.43915865       0.93672336
H        3.14746000       2.31352000       7.15741000      -1.44021485      -0.62680549      -0.90366753
H        3.36905000       3.65486000       7.82366000      -1.00345790       2.24667293       0.24987307
O        2.16481000       2.31350000       1.67591000      -1.23882203       2.02480473      -0.01457783
H        1.48855000       2.31586000       0.94265700       0.98583396       0.25102888       1.07826741
H        1.96501000       3.20016000       2.16434000       0.36754686      -2.41173778      -1.08872932
O        3.50782000       9.64729000       6.78061000      -0.25067409       1.05586229      -0.46832940
H        3.21984000      10.32800000       6.09687000      -0.03309656      -0.65174271       1.10927883
H        2.83075000       9.61780000       7.52449000       0.43412438       0.05816151      -0.75462905
O        6.33042000       2.29575000       7.17703000       0.50808969      -0.39872747      -0.32080647
H        5.38745000       2.49394000       7.35724000      -0.54641814       0.15231214       0.28922620
H        6.29435000       1.70468000       6.39586000       0.15807622       0.16474216      -0.04317766
O        7.19404000       0.89811500       9.64492000      -0.20982788      -0.47399872      -1.24117217
H        6.91138000       1.18478000       8.74437000       0.10554827      -0.28926458       0.22068580
H        7.17139000       1.73371000      10.09560000      -0.23466985       1.25373892       1.17408706
O        1.39033000       6.07411000       4.90527000       0.57486087       0.55660693      -0.33435152
H        1.57232000       6.49426000       4.01592000       0.11834884      -0.12353899       0.87435449
H        2.16498000       6.33307000       5.45705000       0.10841827      -0.19023745      -0.66000726
O        0.70458600      11.80410000      12.03800000       0.27393154      -0.50327779      -0.20783231
H        0.03562000       0.08698600      12.06160000      -0.10392700       0.35399507       0.30904821
H        0.91111500      11.51530000       0.53493100      -0.46214708       0.43364726       0.06009873
192
Lattice="12.42 0.0 0.0 0.0 12.42 0.0 0.0 0.0 12.42" Properties=species:S:1:pos:R:3:forces:R:3 i=2 time=0.0 energy=-29976.610866004317 pbc="T T T"
O        3.37893000      12.12950000      11.12140000      -1.60476887       0.03579988       1.52756764
H        2.87141000       0.56659900      11.16370000       0.70597952      -0.60946555      -0.09488247
H        2.92613000      11.67520000      11.93850000       0.58018220       0.78325185      -1.44316573
O       12.33220000       2.33410000       2.91778000       0.11620395       0.58083145      -0.71809967
H        0.32368300       3.02647000       2.32968000      -0.01540429      -0.43140900       0.70968612
H        0.63421000       1.68796000       3.12993000       0.12090709       0.06594060      -0.14326640
O       10.37120000       0.63179200       6.09897000      -0.95234370      -0.14584245       0.22743727
H        9.67263000       1.11602000       6.60420000       0.24114027      -0.25494576      -0.30103689
H       11.13930000       1.20568000       6.10298000       0.56493634       0.32845279       0.17965217
O        7.58533000       4.65079000       8.69222000      -0.90388000      -1.25210363      -0.43591339
H        7.31209000       5.09477000       7.89884000      -0.91678474       0.45286390      -0.83397988
H        8.45585000       4.99555000       8.81418000       1.54762835       0.64495614       0.89068828
O       10.41720000       3.52976000       4.41280000       1.11015194       0.54907493       0.17924727
H       10.77860000       4.28218000       4.99149000      -0.58225635      -0.67069930      -0.20050500
H       11.19620000       2.97028000       4.17787000      -0.25939096       0.32852278      -0.22427389
O        1.52029000       0.32672900       3.31474000      -0.88511494      -0.63771422       1.48805009
H        0.84633400      12.33600000       3.93610000       0.68749187       0.15915378      -1.23127244
H        2.32499000       0.37074700       3.86577000       0.35864435       0.16947418      -0.32031129
O        4.03872000       9.41268000       0.90796100       0.16497175      -1.40930540      -0.77348446
H        4.69114000      10.08750000       1.09518000       0.82924287       0.90448370       0.01669031
H        3.23444000       9.78138000       1.26615000      -0.95421282      -0.03505851       0.34191848
O        4.32500000       0.67604700       3.90319000      -0.71209991      -0.82021088      -0.52627049
H        4.25056000       1.14312000       3.02243000       0.27026688       0.13986834       0.57401986
H        4.82146000       1.23498000       4.51912000       0.30777959       0.30805620       0.35012828
O        6.47912000       0.99741200      11.76290000       0.69108801       1.10460293      -0.29469011
H        6.55782000       1.96654000      11.54800000      -0.76045444      -0.81650922      -0.00143844
H        7.27778000       0.88320700      12.32100000      -0.35155763      -0.40949743       0.15780626
O        8.12247000      10.67570000       8.63510000      -0.05923920      -0.43300576      -1.32241423
H        7.68924000       9.83385000       8.96195000       0.31138668       0.63510953      -0.28658564
H        8.17786000      10.57830000       7.62270000      -0.27495739       0.01208083       1.54099838
O        5.45268000       8.54214000       5.12004000       0.28445709      -0.71402208      -0.98530955
H        5.29400000       8.04075000       4.28408000       0.09277057       0.57374716       0.69638588
H        4.81970000       9.29485000       5.11795000      -0.36954215      -0.00783554       0.10703009
O        9.40228000       0.40692100      10.29330000      -1.17581128       0.93284379       1.28732851
H        8.84818000      12.13620000       9.92261000      -0.14196307      -0.93879885      -0.72556149
H        8.75346000       0.80040500      10.93860000       1.01247129      -0.25814205      -0.74838508
O        2.50492000       3.24282000       9.59759000      -0.87631497       0.50376471      -1.16065568
H        1.74370000       3.47984000       9.00622000       0.52706712       0.15018500       0.73925210
H        3.07704000       2.68355000       9.02214000       0.30445194      -0.29971184       0.45011936
O        6.41867000       6.89183000      11.59290000      -0.23199799       0.30423438       0.80434810
H        6.39144000       5.93489000      11.45330000      -0.15346365      -0.32573695      -0.16125475
H        5.65392000       7.09252000      12.17260000       0.52817637      -0.27703791      -0.62440001
O       12.16840000       0.28577000       9.68255000       0.54022675       1.81949490       1.75063031
H       11.34470000       0.57725000      10.13780000       0.12753655      -0.48132371      -0.60212549
H        0.38081700       0.90866200      10.15870000      -0.62052208      -1.31833606      -1.06447344
O       11.07080000       0.95364100       0.87398300      -0.09517228      -0.05421498       0.85177644
H       11.48570000       1.29841000       1.71911000      -0.27413971      -0.09947327      -0.51933085
H       11.20120000       1.66670000       0.23105400      -0.07111167       0.07283105      -0.31442471
O        2.22646000       8.61495000       3.16309000      -1.79754431      -0.05969656      -0.59833731
H        1.25923000       8.77734000       2.93006000       1.36855867      -0.41518411       0.10112748
H        2.44237000       9.34478000       3.74541000       0.39902788       0.46352863       0.59774077
O       11.35100000      10.92840000       7.68980000      -0.03405192      -1.27527766      -0.50725305
H       10.83270000      11.54650000       7.16079000      -0.12935964       0.57233286      -0.33911810
H       11.58690000      11.41160000       8.47797000       0.34729286       0.62374353       0.63358093
O        5.55287000      11.38570000       1.70586000       1.49498086       0.14696069      -0.96205159
H        6.26409000      12.00180000       1.37697000      -1.12066432      -0.72502964       0.62962513
H        5.01499000      11.82510000       2.36209000       0.01589448       0.72090086       0.74507202
O        6.47865000       3.81934000      10.97720000      -2.48875249       0.26728431      -3.41651251
H        6.69447000       3.88229000       9.95648000       0.26324758       0.21269532       2.55910431
H        7.23362000       3.67491000      11.48170000       2.48958787      -0.10132267       1.14457185
O       10.19370000       9.37509000      10.02930000      -2.47533246       0.88576578       0.62145612
H        9.31031000       9.33362000      10.55310000       1.91824017      -0.16655304      -0.93644150
H        9.88092000       9.84976000       9.20257000       0.44709685      -0.44619645       0.70558328
O        8.02135000      12.10090000       4.11873000       0.51966121       1.31545598       0.39665094
H        7.66564000      12.40310000       3.27443000       0.01225985      -0.51279948      -0.27188058
H        8.28315000       0.58982400       4.46535000      -0.40697748      -1.06766592      -0.06810452
O        4.31676000       1.75696000       1.57885000       0.38187473      -0.99658305      -1.75034403
H        4.48514000       2.71329000       1.43788000       0.24213240      -0.15853352      -0.01989637
H        4.74214000       1.21775000       0.83157300      -0.70460724       1.41972896       1.19948162
O        4.34057000       1.62974000       8.54119000       1.22110211      -0.11723138       1.11464689
H        5.02049000       1.47592000       9.25404000      -0.98778879       0.56476648      -0.80532669
H        4.22205000       0.69777800       8.27068000      -0.00335124      -0.46432267      -0.47685481
O        5.28164000       7.07772000       2.19611000       1.02484923       1.95221343      -1.46195926
H        6.26316000       7.31417000       2.06492000      -1.40133083      -0.31519889       0.50088940
H        4.88396000       7.87010000       1.67222000      -0.01412003      -1.32212538       1.20367106
O        1.61920000      11.30720000       6.86875000      -0.13940811      -0.55300328       0.51887342
H        1.94842000      10.87260000       7.68350000       0.32088685       0.34922295       0.02557304
H        0.67532600      11.03190000       6.91261000      -0.11085147       0.36522479      -0.18675160
O        2.93837000      10.10480000       9.20199000      -0.80065168       1.41889904      -1.60354411
H        2.81080000       9.20572000       9.50962000       0.22212304      -0.28436406       1.06162420
H        2.69245000      10.84330000       9.79192000       0.01323185      -0.66656010       0.75265584
O        3.55705000      10.45010000       5.06246000      -0.97718535      -0.83901193       0.77758885
H        2.98983000      10.69170000       5.85973000       0.71473616       0.01246822      -1.19163430
H        3.99804000      11.23690000       4.75564000       0.22095003       1.08278090      -0.05317910
O        1.56042000       4.37808000       1.55864000       0.65200635      -0.23662982       1.74421848
H        1.04683000       5.10334000       1.15422000       0.35596222       0.33336020       0.22703147
H        2.04412000       4.73350000       2.38574000      -0.89419449      -0.16170821      -1.68223916
O        4.96962000       4.41678000       1.24195000      -0.57583030       0.11489833      -1.21419887
H        4.39099000       4.65547000       0.39648700       0.79430423      -0.58590297       1.20617001
H        5.16982000       5.30365000       1.56798000      -0.17276244       0.39838792       0.52573564