 DBCSR| CPU Multiplication driver                                           XSMM
 DBCSR| Multrec recursion limit                                              512
 DBCSR| Multiplication stack size                                           1000
 DBCSR| Maximum elements for images                                    UNLIMITED
 DBCSR| Multiplicative factor virtual images                                   1
 DBCSR| Use multiplication densification                                       T
 DBCSR| Multiplication size stacks                                             3
 DBCSR| Use memory pool for CPU allocation                                     F
 DBCSR| Number of 3D layers                                               SINGLE
 DBCSR| Use MPI memory allocation                                              F
 DBCSR| Use RMA algorithm                                                      F
 DBCSR| Use Communication thread                                               T
 DBCSR| Communication thread load                                             87
 DBCSR| MPI: My node id                                                        0
 DBCSR| MPI: Number of nodes                                                 140
 DBCSR| OMP: Current number of threads                                         1
 DBCSR| OMP: Max number of threads                                             1
 DBCSR| Split modifier for TAS multiplication algorithm                  1.0E+00


  **** **** ******  **  PROGRAM STARTED AT               2023-02-01 01:49:22.086
 ***** ** ***  *** **   PROGRAM STARTED ON                                 cu016
 **    ****   ******    PROGRAM STARTED BY                                  whxu
 ***** **    ** ** **   PROGRAM PROCESS ID                                 47451
  **** **  *******  **  PROGRAM STARTED IN /public/groups/chenggroup/tmp/ai2-kit
                                           -debug/dpgen-demo/iters-000/label-cp2
                                           k/tasks/000000

 CP2K| version string:                                          CP2K version 8.2
 CP2K| source code revision number:                                  git:310b7ab
 CP2K| cp2kflags: omp libint fftw3 libxc parallel mpi3 scalapack cosma xsmm plum
 CP2K|            ed2 spglib mkl libvori libbqb
 CP2K| is freely available from                            https://www.cp2k.org/
 CP2K| Program compiled at                           Tue Nov 8 10:06:43 CST 2022
 CP2K| Program compiled on                                                 mu003
 CP2K| Program compiled for                                                local
 CP2K| Data directory path           /public/sourcepackage/cp2k-82/cp2k-8.2/data
 CP2K| Input file name                                                 input.inp

 GLOBAL| Force Environment number                                              1
 GLOBAL| Basis set file name            /public/groups/chenggroup/sample-data/cp
 GLOBAL| Potential file name            /public/groups/chenggroup/sample-data/cp
 GLOBAL| MM Potential file name                                     MM_POTENTIAL
 GLOBAL| Coordinate file name                                      __STD_INPUT__
 GLOBAL| Method name                                                        CP2K
 GLOBAL| Project name                                                      DPGEN
 GLOBAL| Run type                                                   ENERGY_FORCE
 GLOBAL| FFT library                                                       FFTW3
 GLOBAL| Diagonalization library                                            ELPA
 GLOBAL| Minimum number of eigenvectors for ELPA usage                        16
 GLOBAL| Orthonormality check for eigenvectors                          DISABLED
 GLOBAL| Matrix multiplication library                                     COSMA
 GLOBAL| All-to-all communication in single precision                          F
 GLOBAL| FFTs using library dependent lengths                                  T
 GLOBAL| Grid backend                                                       AUTO
 GLOBAL| Global print level                                               MEDIUM
 GLOBAL| MPI I/O enabled                                                       T
 GLOBAL| Total number of message passing processes                           140
 GLOBAL| Number of threads for this process                                    1
 GLOBAL| This output is from process                                           0
 GLOBAL| CPU model name                 Intel(R) Xeon(R) Gold 6338 CPU @ 2.00GHz
 GLOBAL| CPUID                                                              1003

 MEMORY| system memory details [Kb]
 MEMORY|                        rank 0           min           max       average
 MEMORY| MemTotal            263619172     263619172     263619172     263619172
 MEMORY| MemFree             251485648     251443232     252427028     251806380
 MEMORY| Buffers                    44             8          3296          1330
 MEMORY| Cached                 583704        424296        608980        531494
 MEMORY| Slab                   545108        502328        579104        540612
 MEMORY| SReclaimable           142740        130164        150812        141356
 MEMORY| MemLikelyFree       252212136     252198544     253186192     252480562


 *** WARNING in environment.F:1038 :: Diagonalization library ELPA is not ***
 *** available. The ScaLAPACK library is used as fallback.                ***


 *** Fundamental physical constants (SI units) ***

 *** Literature: B. J. Mohr and B. N. Taylor,
 ***             CODATA recommended values of the fundamental physical
 ***             constants: 2006, Web Version 5.1
 ***             http://physics.nist.gov/constants

 Speed of light in vacuum [m/s]                             2.99792458000000E+08
 Magnetic constant or permeability of vacuum [N/A**2]       1.25663706143592E-06
 Electric constant or permittivity of vacuum [F/m]          8.85418781762039E-12
 Planck constant (h) [J*s]                                  6.62606896000000E-34
 Planck constant (h-bar) [J*s]                              1.05457162825177E-34
 Elementary charge [C]                                      1.60217648700000E-19
 Electron mass [kg]                                         9.10938215000000E-31
 Electron g factor [ ]                                     -2.00231930436220E+00
 Proton mass [kg]                                           1.67262163700000E-27
 Fine-structure constant                                    7.29735253760000E-03
 Rydberg constant [1/m]                                     1.09737315685270E+07
 Avogadro constant [1/mol]                                  6.02214179000000E+23
 Boltzmann constant [J/K]                                   1.38065040000000E-23
 Atomic mass unit [kg]                                      1.66053878200000E-27
 Bohr radius [m]                                            5.29177208590000E-11

 *** Conversion factors ***

 [u] -> [a.u.]                                              1.82288848426455E+03
 [Angstrom] -> [Bohr] = [a.u.]                              1.88972613288564E+00
 [a.u.] = [Bohr] -> [Angstrom]                              5.29177208590000E-01
 [a.u.] -> [s]                                              2.41888432650478E-17
 [a.u.] -> [fs]                                             2.41888432650478E-02
 [a.u.] -> [J]                                              4.35974393937059E-18
 [a.u.] -> [N]                                              8.23872205491840E-08
 [a.u.] -> [K]                                              3.15774647902944E+05
 [a.u.] -> [kJ/mol]                                         2.62549961709828E+03
 [a.u.] -> [kcal/mol]                                       6.27509468713739E+02
 [a.u.] -> [Pa]                                             2.94210107994716E+13
 [a.u.] -> [bar]                                            2.94210107994716E+08
 [a.u.] -> [atm]                                            2.90362800883016E+08
 [a.u.] -> [eV]                                             2.72113838565563E+01
 [a.u.] -> [Hz]                                             6.57968392072181E+15
 [a.u.] -> [1/cm] (wave numbers)                            2.19474631370540E+05
 [a.u./Bohr**2] -> [1/cm]                                   5.14048714338585E+03
 

 CELL_TOP| Volume [angstrom^3]:                                      1915.864523
 CELL_TOP| Vector a [angstrom    12.420     0.000     0.000   |a| =    12.420000
 CELL_TOP| Vector b [angstrom     0.000    12.420     0.000   |b| =    12.420000
 CELL_TOP| Vector c [angstrom     0.000     0.000    12.420   |c| =    12.420000
 CELL_TOP| Angle (b,c), alpha [degree]:                                90.000000
 CELL_TOP| Angle (a,c), beta  [degree]:                                90.000000
 CELL_TOP| Angle (a,b), gamma [degree]:                                90.000000
 CELL_TOP| Numerically orthorhombic:                                         YES

 GENERATE|  Preliminary Number of Bonds generated:                             0
 GENERATE|  Achieved consistency in connectivity generation.

 CELL| Volume [angstrom^3]:                                          1915.864523
 CELL| Vector a [angstrom]:      12.420     0.000     0.000   |a| =    12.420000
 CELL| Vector b [angstrom]:       0.000    12.420     0.000   |b| =    12.420000
 CELL| Vector c [angstrom]:       0.000     0.000    12.420   |c| =    12.420000
 CELL| Angle (b,c), alpha [degree]:                                    90.000000
 CELL| Angle (a,c), beta  [degree]:                                    90.000000
 CELL| Angle (a,b), gamma [degree]:                                    90.000000
 CELL| Numerically orthorhombic:                                             YES

 CELL_REF| Volume [angstrom^3]:                                      1915.864523
 CELL_REF| Vector a [angstrom    12.420     0.000     0.000   |a| =    12.420000
 CELL_REF| Vector b [angstrom     0.000    12.420     0.000   |b| =    12.420000
 CELL_REF| Vector c [angstrom     0.000     0.000    12.420   |c| =    12.420000
 CELL_REF| Angle (b,c), alpha [degree]:                                90.000000
 CELL_REF| Angle (a,c), beta  [degree]:                                90.000000
 CELL_REF| Angle (a,b), gamma [degree]:                                90.000000
 CELL_REF| Numerically orthorhombic:                                         YES

 *******************************************************************************
 *******************************************************************************
 **                                                                           **
 **     #####                         ##              ##                      **
 **    ##   ##            ##          ##              ##                      **
 **   ##     ##                       ##            ######                    **
 **   ##     ##  ##   ##  ##   #####  ##  ##   ####   ##    #####    #####    **
 **   ##     ##  ##   ##  ##  ##      ## ##   ##      ##   ##   ##  ##   ##   **
 **   ##  ## ##  ##   ##  ##  ##      ####     ###    ##   ######   ######    **
 **    ##  ###   ##   ##  ##  ##      ## ##      ##   ##   ##       ##        **
 **     #######   #####   ##   #####  ##  ##  ####    ##    #####   ##        **
 **           ##                                                    ##        **
 **                                                                           **
 **                                                ... make the atoms dance   **
 **                                                                           **
 **            Copyright (C) by CP2K developers group (2000-2021)             **
 **                      J. Chem. Phys. 152, 194103 (2020)                    **
 **                                                                           **
 *******************************************************************************

 DFT| Spin restricted Kohn-Sham (RKS) calculation                            RKS
 DFT| Multiplicity                                                             1
 DFT| Number of spin states                                                    1
 DFT| Charge                                                                   0
 DFT| Self-interaction correction (SIC)                                       NO
 DFT| Cutoffs: density                                              1.000000E-10
 DFT|          gradient                                             1.000000E-10
 DFT|          tau                                                  1.000000E-10
 DFT|          cutoff_smoothing_range                               0.000000E+00
 DFT| XC density smoothing                                                  NONE
 DFT| XC derivatives                                                          PW
 FUNCTIONAL| ROUTINE=NEW
 FUNCTIONAL| LIBXC Vers. 5.1.4 (Marques, Oliveira, Burnus, CPC 183, 2272 (2012))
 FUNCTIONAL| Re-regularized SCAN exchange by Furness et al (exchange):
 FUNCTIONAL| [1] J. W. Furness, A. D. Kaplan, J. Ning, J. P. Perdew, and J. Sun,
 FUNCTIONAL|  J. Phys. Chem. Lett. 11, 8208 (2020), doi: 10.1021/acs.jpclett.0c0
 FUNCTIONAL| 2405                                                               
 FUNCTIONAL| Optional external parameters:                                      
 FUNCTIONAL|  * c1 parameter                                                    
 FUNCTIONAL|  * c2 parameter                                                    
 FUNCTIONAL|  * d parameter                                                     
 FUNCTIONAL|  * k1 parameter                                                    
 FUNCTIONAL|  * taur parameter                                                  
 FUNCTIONAL|  * alphar parameter                                                
 FUNCTIONAL|  * eta parameter                                                   
 FUNCTIONAL|  * dp2 parameter                                                   
 FUNCTIONAL| [2] J. W. Furness, A. D. Kaplan, J. Ning, J. P. Perdew, and J. Sun,
 FUNCTIONAL|  J. Phys. Chem. Lett. 11, 9248 (2020), doi: 10.1021/acs.jpclett.0c0
 FUNCTIONAL| 3077                                                               
 FUNCTIONAL| Optional external parameters:                                      
 FUNCTIONAL|  * c1 parameter                                                    
 FUNCTIONAL|  * c2 parameter                                                    
 FUNCTIONAL|  * d parameter                                                     
 FUNCTIONAL|  * k1 parameter                                                    
 FUNCTIONAL|  * taur parameter                                                  
 FUNCTIONAL|  * alphar parameter                                                
 FUNCTIONAL|  * eta parameter                                                   
 FUNCTIONAL|  * dp2 parameter                                                   
 FUNCTIONAL| {scale=1.000, spin-unpolarized}                                    
 FUNCTIONAL| LIBXC Vers. 5.1.4 (Marques, Oliveira, Burnus, CPC 183, 2272 (2012))
 FUNCTIONAL| Re-regularized SCAN correlation by Furness et al (correlation):
 FUNCTIONAL| [1] J. W. Furness, A. D. Kaplan, J. Ning, J. P. Perdew, and J. Sun,
 FUNCTIONAL|  J. Phys. Chem. Lett. 11, 8208 (2020), doi: 10.1021/acs.jpclett.0c0
 FUNCTIONAL| 2405                                                               
 FUNCTIONAL| [2] J. W. Furness, A. D. Kaplan, J. Ning, J. P. Perdew, and J. Sun,
 FUNCTIONAL|  J. Phys. Chem. Lett. 11, 9248 (2020), doi: 10.1021/acs.jpclett.0c0
 FUNCTIONAL| 3077                                                               
 FUNCTIONAL| {scale=1.000, spin-unpolarized}                                    

 QS| Method:                                                                 GPW
 QS| Density plane wave grid type                        NON-SPHERICAL FULLSPACE
 QS| Number of grid levels:                                                    4
 QS| Density cutoff [a.u.]:                                                450.0
 QS| Multi grid cutoff [a.u.]: 1) grid level                               450.0
 QS|                           2) grid level                               150.0
 QS|                           3) grid level                                50.0
 QS|                           4) grid level                                16.7
 QS| Grid level progression factor:                                          3.0
 QS| Relative density cutoff [a.u.]:                                        45.0
 QS| Interaction thresholds: eps_pgf_orb:                                3.2E-07
 QS|                         eps_filter_matrix:                          0.0E+00
 QS|                         eps_core_charge:                            1.0E-15
 QS|                         eps_rho_gspace:                             1.0E-13
 QS|                         eps_rho_rspace:                             1.0E-13
 QS|                         eps_gvg_rspace:                             3.2E-07
 QS|                         eps_ppl:                                    1.0E-02
 QS|                         eps_ppnl:                                   3.2E-09


 ATOMIC KIND INFORMATION

  1. Atomic kind: H                                     Number of atoms:     128

     Orbital Basis Set                                           TZVP-MOLOPT-GTH

       Number of orbital shell sets:                                           1
       Number of orbital shells:                                               4
       Number of primitive Cartesian functions:                                7
       Number of Cartesian basis functions:                                    6
       Number of spherical basis functions:                                    6
       Norm type:                                                              2

       Normalised Cartesian orbitals:

                        Set   Shell   Orbital            Exponent    Coefficient

                          1       1    2s               11.478000       0.129129
                                                         3.700759       0.177012
                                                         1.446884       0.141285
                                                         0.716815       0.245670
                                                         0.247919       0.094768
                                                         0.066918       0.004062
                                                         0.021708      -0.000053

                          1       2    3s               11.478000      -0.079256
                                                         3.700759      -0.152992
                                                         1.446884       0.015066
                                                         0.716815      -0.331234
                                                         0.247919       0.210690
                                                         0.066918       0.058630
                                                         0.021708      -0.003429

                          1       3    4s               11.478000      -0.246880
                                                         3.700759       0.023016
                                                         1.446884      -1.109374
                                                         0.716815       1.524652
                                                         0.247919      -0.227968
                                                         0.066918      -0.037343
                                                         0.021708       0.005696

                          1       4    3px              11.478000       0.325290
                                                         3.700759       0.187466
                                                         1.446884       0.443300
                                                         0.716815       0.267738
                                                         0.247919       0.088285
                                                         0.066918       0.019092
                                                         0.021708       0.000629
                          1       4    3py              11.478000       0.325290
                                                         3.700759       0.187466
                                                         1.446884       0.443300
                                                         0.716815       0.267738
                                                         0.247919       0.088285
                                                         0.066918       0.019092
                                                         0.021708       0.000629
                          1       4    3pz              11.478000       0.325290
                                                         3.700759       0.187466
                                                         1.446884       0.443300
                                                         0.716815       0.267738
                                                         0.247919       0.088285
                                                         0.066918       0.019092
                                                         0.021708       0.000629

       Atomic covalent radius [Angstrom]:                                  0.320

       Atomic van der Waals radius [Angstrom]:                             1.090

     GTH Potential information for                                   GTH-SCAN-q1

       Description:                       Goedecker-Teter-Hutter pseudopotential
                                           Goedecker et al., PRB 54, 1703 (1996)
                                          Hartwigsen et al., PRB 58, 3641 (1998)
                                                      Krack, TCA 114, 145 (2005)

       Gaussian exponent of the core charge distribution:              12.429142
       Electronic configuration (s p d ...):                       1   0   0   0

       Parameters of the local part of the GTH pseudopotential:

                          rloc        C1          C2          C3          C4
                        0.200569   -4.177243    0.723816

  2. Atomic kind: O                                     Number of atoms:      64

     Orbital Basis Set                                           TZVP-MOLOPT-GTH

       Number of orbital shell sets:                                           1
       Number of orbital shells:                                               7
       Number of primitive Cartesian functions:                                7
       Number of Cartesian basis functions:                                   18
       Number of spherical basis functions:                                   17
       Norm type:                                                              2

       Normalised Cartesian orbitals:

                        Set   Shell   Orbital            Exponent    Coefficient

                          1       1    2s               12.015955      -0.284499
                                                         5.108150      -0.322498
                                                         2.048398       0.148191
                                                         0.832382       0.295475
                                                         0.352316       0.150829
                                                         0.142977       0.015788
                                                         0.046761      -0.000019

                          1       2    3s               12.015955       0.725622
                                                         5.108150       0.644384
                                                         2.048398      -0.157350
                                                         0.832382      -0.853528
                                                         0.352316       0.146068
                                                         0.142977       0.153978
                                                         0.046761       0.000658

                          1       3    4s               12.015955       1.228006
                                                         5.108150       1.271453
                                                         2.048398      -0.537390
                                                         0.832382      -1.759282
                                                         0.352316       1.533697
                                                         0.142977      -0.562509
                                                         0.046761       0.081954

                          1       4    3px              12.015955       1.192141
                                                         5.108150       1.354170
                                                         2.048398       0.897267
                                                         0.832382       0.408839
                                                         0.352316       0.116648
                                                         0.142977       0.022184
                                                         0.046761       0.000308
                          1       4    3py              12.015955       1.192141
                                                         5.108150       1.354170
                                                         2.048398       0.897267
                                                         0.832382       0.408839
                                                         0.352316       0.116648
                                                         0.142977       0.022184
                                                         0.046761       0.000308
                          1       4    3pz              12.015955       1.192141
                                                         5.108150       1.354170
                                                         2.048398       0.897267
                                                         0.832382       0.408839
                                                         0.352316       0.116648
                                                         0.142977       0.022184
                                                         0.046761       0.000308

                          1       5    4px              12.015955      -1.062381
                                                         5.108150      -1.285791
                                                         2.048398      -0.727000
                                                         0.832382      -0.522764
                                                         0.352316       0.182681
                                                         0.142977       0.087560
                                                         0.046761       0.000981
                          1       5    4py              12.015955      -1.062381
                                                         5.108150      -1.285791
                                                         2.048398      -0.727000
                                                         0.832382      -0.522764
                                                         0.352316       0.182681
                                                         0.142977       0.087560
                                                         0.046761       0.000981
                          1       5    4pz              12.015955      -1.062381
                                                         5.108150      -1.285791
                                                         2.048398      -0.727000
                                                         0.832382      -0.522764
                                                         0.352316       0.182681
                                                         0.142977       0.087560
                                                         0.046761       0.000981

                          1       6    5px              12.015955      -0.063722
                                                         5.108150       0.363638
                                                         2.048398       0.015152
                                                         0.832382      -0.083580
                                                         0.352316       0.692078
                                                         0.142977      -0.184312
                                                         0.046761       0.007664
                          1       6    5py              12.015955      -0.063722
                                                         5.108150       0.363638
                                                         2.048398       0.015152
                                                         0.832382      -0.083580
                                                         0.352316       0.692078
                                                         0.142977      -0.184312
                                                         0.046761       0.007664
                          1       6    5pz              12.015955      -0.063722
                                                         5.108150       0.363638
                                                         2.048398       0.015152
                                                         0.832382      -0.083580
                                                         0.352316       0.692078
                                                         0.142977      -0.184312
                                                         0.046761       0.007664

                          1       7    4dx2             12.015955       1.125955
                                                         5.108150       1.160468
                                                         2.048398       0.999335
                                                         0.832382       0.756334
                                                         0.352316       0.048604
                                                         0.142977       0.010378
                                                         0.046761      -0.000027
                          1       7    4dxy             12.015955       1.950212
                                                         5.108150       2.009990
                                                         2.048398       1.730899
                                                         0.832382       1.310009
                                                         0.352316       0.084185
                                                         0.142977       0.017974
                                                         0.046761      -0.000046
                          1       7    4dxz             12.015955       1.950212
                                                         5.108150       2.009990
                                                         2.048398       1.730899
                                                         0.832382       1.310009
                                                         0.352316       0.084185
                                                         0.142977       0.017974
                                                         0.046761      -0.000046
                          1       7    4dy2             12.015955       1.125955
                                                         5.108150       1.160468
                                                         2.048398       0.999335
                                                         0.832382       0.756334
                                                         0.352316       0.048604
                                                         0.142977       0.010378
                                                         0.046761      -0.000027
                          1       7    4dyz             12.015955       1.950212
                                                         5.108150       2.009990
                                                         2.048398       1.730899
                                                         0.832382       1.310009
                                                         0.352316       0.084185
                                                         0.142977       0.017974
                                                         0.046761      -0.000046
                          1       7    4dz2             12.015955       1.125955
                                                         5.108150       1.160468
                                                         2.048398       0.999335
                                                         0.832382       0.756334
                                                         0.352316       0.048604
                                                         0.142977       0.010378
                                                         0.046761      -0.000027

       Atomic covalent radius [Angstrom]:                                  0.730

       Atomic van der Waals radius [Angstrom]:                             1.520

     GTH Potential information for                                   GTH-SCAN-q6

       Description:                       Goedecker-Teter-Hutter pseudopotential
                                           Goedecker et al., PRB 54, 1703 (1996)
                                          Hartwigsen et al., PRB 58, 3641 (1998)
                                                      Krack, TCA 114, 145 (2005)

       Gaussian exponent of the core charge distribution:               8.656553
       Electronic configuration (s p d ...):                       2   4   0   0

       Parameters of the local part of the GTH pseudopotential:

                          rloc        C1          C2          C3          C4
                        0.240333  -16.794986    2.452457

       Parameters of the non-local part of the GTH pseudopotential:

                   l      r(l)      h(i,j,l)

                   0    0.221500   18.441562


 MOLECULE KIND INFORMATION


 All atoms are their own molecule, skipping detailed information


 TOTAL NUMBERS AND MAXIMUM NUMBERS

  Total number of            - Atomic kinds:                                   2
                             - Atoms:                                        192
                             - Shell sets:                                   192
                             - Shells:                                       960
                             - Primitive Cartesian functions:               1344
                             - Cartesian basis functions:                   1920
                             - Spherical basis functions:                   1856

  Maximum angular momentum of- Orbital basis functions:                        2
                             - Local part of the GTH pseudopotential:          2
                             - Non-local part of the GTH pseudopotential:      0


 MODULE QUICKSTEP:  ATOMIC COORDINATES IN angstrom

  Atom  Kind  Element       X           Y           Z          Z(eff)       Mass

       1     1 H    1    0.613889    5.742210    0.851211      1.0000       1.0079
       2     1 H    1    4.830530    1.787300    7.724820      1.0000       1.0079
       3     1 H    1    9.041710    7.688650   11.600100      1.0000       1.0079
       4     1 H    1    9.410560    8.868440   10.651900      1.0000       1.0079
       5     1 H    1    2.346970    3.238500    0.567929      1.0000       1.0079
       6     1 H    1    1.923300    1.707590    0.287586      1.0000       1.0079
       7     1 H    1    0.198061    7.345950    3.664900      1.0000       1.0079
       8     1 H    1   11.882500    7.159210    2.367650      1.0000       1.0079
       9     1 H    1    8.462160    0.987052    6.190480      1.0000       1.0079
      10     1 H    1    0.457125    7.887530    8.639110      1.0000       1.0079
      11     1 H    1    9.027540    2.920650    0.990120      1.0000       1.0079
      12     1 H    1    7.341990    2.379270    7.822420      1.0000       1.0079
      13     1 H    1   12.085400    3.734210    1.419610      1.0000       1.0079
      14     1 H    1   10.819000    3.305730    2.361660      1.0000       1.0079
      15     1 H    1    5.899340    1.636020   12.142000      1.0000       1.0079
      16     1 H    1    7.346700    1.504710    0.337121      1.0000       1.0079
      17     1 H    1    7.552020    3.452590    1.447280      1.0000       1.0079
      18     1 H    1   12.085800    8.643470    9.614440      1.0000       1.0079
      19     1 H    1    5.965090    3.376020   10.329100      1.0000       1.0079
      20     1 H    1    5.193200    6.193010    6.324020      1.0000       1.0079
      21     1 H    1    9.115120    9.014070    2.907340      1.0000       1.0079
      22     1 H    1    8.181280    3.644600    7.567690      1.0000       1.0079
      23     1 H    1    3.964300    5.955630    9.453240      1.0000       1.0079
      24     1 H    1    9.693770   11.801000    8.426670      1.0000       1.0079
      25     1 H    1    5.317220   12.368000   11.533200      1.0000       1.0079
      26     1 H    1    9.275960    9.530700    8.264430      1.0000       1.0079
      27     1 H    1    6.305520    5.627390    1.826420      1.0000       1.0079
      28     1 H    1   10.537500    4.249220    5.341790      1.0000       1.0079
      29     1 H    1   10.513600    5.555990    4.618220      1.0000       1.0079
      30     1 H    1    4.553560    2.621810    9.000900      1.0000       1.0079
      31     1 H    1    5.715330   11.483700    0.409803      1.0000       1.0079
      32     1 H    1    4.626740    8.434000    9.682280      1.0000       1.0079
      33     1 H    1    3.552230    8.704950    8.560060      1.0000       1.0079
      34     1 H    1   10.083000    9.118500    5.318020      1.0000       1.0079
      35     1 H    1   10.515200    0.418031    9.292810      1.0000       1.0079
      36     1 H    1   10.954500    9.170650    4.182590      1.0000       1.0079
      37     1 H    1    6.945950    3.817470    5.845260      1.0000       1.0079
      38     1 H    1   11.764700   10.679300    7.262580      1.0000       1.0079
      39     1 H    1   12.186200   12.065700    7.127400      1.0000       1.0079
      40     1 H    1    0.037500    3.310050   11.670100      1.0000       1.0079
      41     1 H    1   10.850500    3.021490   11.692200      1.0000       1.0079
      42     1 H    1    9.898780    0.788775   11.565300      1.0000       1.0079
      43     1 H    1    8.650720    0.936091   10.799000      1.0000       1.0079
      44     1 H    1   10.501100    2.627350    7.316260      1.0000       1.0079
      45     1 H    1   10.290000    2.275200    8.771270      1.0000       1.0079
      46     1 H    1    7.763170    3.658300    4.580380      1.0000       1.0079
      47     1 H    1    8.048840   10.053200    9.150490      1.0000       1.0079
      48     1 H    1    2.788820    5.386520   10.297900      1.0000       1.0079
      49     1 H    1    2.444950    5.319620    2.062810      1.0000       1.0079
      50     1 H    1    3.630980    9.133000    4.393670      1.0000       1.0079
      51     1 H    1    2.437360    6.103280    0.710181      1.0000       1.0079
      52     1 H    1    3.755970    0.865253   10.355700      1.0000       1.0079
      53     1 H    1    3.134400    7.330340   11.836600      1.0000       1.0079
      54     1 H    1    1.855740    8.489830    2.048250      1.0000       1.0079
      55     1 H    1    4.567970   10.402400    4.705020      1.0000       1.0079
      56     1 H    1    3.379500    3.174230    3.953270      1.0000       1.0079
      57     1 H    1    3.304220    1.795290   11.438400      1.0000       1.0079
      58     1 H    1    3.933180    4.535290    4.394420      1.0000       1.0079
      59     1 H    1    0.304980    8.122450   11.846400      1.0000       1.0079
      60     1 H    1    2.590120    8.717740   12.307100      1.0000       1.0079
      61     1 H    1    1.651490    1.608450    9.064380      1.0000       1.0079
      62     1 H    1    9.333130    7.770780    6.991210      1.0000       1.0079
      63     1 H    1    2.784290   10.285600   10.572300      1.0000       1.0079
      64     1 H    1   10.743900    8.064200    7.521590      1.0000       1.0079
      65     1 H    1    6.928360    6.221830   11.023900      1.0000       1.0079
      66     1 H    1   11.877900   11.639800   11.409400      1.0000       1.0079
      67     1 H    1    5.363890    6.533430   10.662300      1.0000       1.0079
      68     1 H    1    0.257403    0.102700   12.297700      1.0000       1.0079
      69     1 H    1   11.301800    8.537550   11.773800      1.0000       1.0079
      70     1 H    1    1.119780    1.003560   10.334700      1.0000       1.0079
      71     1 H    1    1.552510   10.217900    8.743520      1.0000       1.0079
      72     1 H    1    0.366323    0.802169    3.492710      1.0000       1.0079
      73     1 H    1    0.538778    2.211910    2.932930      1.0000       1.0079
      74     1 H    1    3.672800    1.690090    2.896840      1.0000       1.0079
      75     1 H    1    2.702530    0.993826    3.854960      1.0000       1.0079
      76     1 H    1    5.084950   12.239100    4.058870      1.0000       1.0079
      77     1 H    1    6.140980    7.337760    0.393614      1.0000       1.0079
      78     1 H    1    6.457750   11.634000    3.790280      1.0000       1.0079
      79     1 H    1    6.745960    8.046580    1.587550      1.0000       1.0079
      80     1 H    1    8.028870   10.713600    1.519880      1.0000       1.0079
      81     1 H    1    7.804110   12.164800    1.515660      1.0000       1.0079
      82     1 H    1   11.806000    5.301730    7.836080      1.0000       1.0079
      83     1 H    1    2.427540   11.386000    8.474470      1.0000       1.0079
      84     1 H    1    4.523650    7.457860    2.477630      1.0000       1.0079
      85     1 H    1    4.372840    6.911140    3.905710      1.0000       1.0079
      86     1 H    1    9.273720    8.576180    1.534780      1.0000       1.0079
      87     1 H    1    4.786680    4.196830   10.688900      1.0000       1.0079
      88     1 H    1   11.177600    1.731390    5.182750      1.0000       1.0079
      89     1 H    1   11.234300    4.859320    9.948600      1.0000       1.0079
      90     1 H    1   10.051300    4.345620    9.179660      1.0000       1.0079
      91     1 H    1   12.107100    2.127180    6.237180      1.0000       1.0079
      92     1 H    1   11.891500   10.196300    0.785587      1.0000       1.0079
      93     1 H    1    0.686636   10.488900    1.538140      1.0000       1.0079
      94     1 H    1    0.513865    5.419770    6.657530      1.0000       1.0079
      95     1 H    1   11.436800    5.560030    0.917143      1.0000       1.0079
      96     1 H    1    2.480340    9.283630    3.224380      1.0000       1.0079
      97     1 H    1    5.529300    5.319330    5.075130      1.0000       1.0079
      98     1 H    1    2.485540   12.215500    0.308782      1.0000       1.0079
      99     1 H    1    5.148190    7.256140    8.051960      1.0000       1.0079
     100     1 H    1    6.053560    6.022690    8.350700      1.0000       1.0079
     101     1 H    1    1.554070    4.972910    4.184570      1.0000       1.0079
     102     1 H    1    0.260916    4.701740    3.583450      1.0000       1.0079
     103     1 H    1    3.088160    4.749220    6.367050      1.0000       1.0079
     104     1 H    1    3.169490    3.760140    7.599520      1.0000       1.0079
     105     1 H    1   10.424300    0.630889    2.303540      1.0000       1.0079
     106     1 H    1    3.735830   10.732700   11.748200      1.0000       1.0079
     107     1 H    1    9.011320    5.220140    2.713140      1.0000       1.0079
     108     1 H    1    8.481660    6.600490    2.159450      1.0000       1.0079
     109     1 H    1    1.539330    4.502200    8.607730      1.0000       1.0079
     110     1 H    1    1.489830    3.524530    9.719970      1.0000       1.0079
     111     1 H    1    9.236810    5.370330   10.832800      1.0000       1.0079
     112     1 H    1    8.584930    5.410470   12.310400      1.0000       1.0079
     113     1 H    1   11.702400    0.705439    1.584390      1.0000       1.0079
     114     1 H    1   10.585400   11.543400    4.246270      1.0000       1.0079
     115     1 H    1    5.935590   10.032800    9.047820      1.0000       1.0079
     116     1 H    1    2.039090   12.131000    1.919610      1.0000       1.0079
     117     1 H    1    1.626660    0.804781    6.242850      1.0000       1.0079
     118     1 H    1    1.982830    2.180050    6.907660      1.0000       1.0079
     119     1 H    1    9.451770    5.904520    7.803690      1.0000       1.0079
     120     1 H    1    5.863670    0.101700    6.631250      1.0000       1.0079
     121     1 H    1    9.216130    6.168530    6.342950      1.0000       1.0079
     122     1 H    1    1.062640   11.391700    5.297980      1.0000       1.0079
     123     1 H    1    2.400020   11.321500    4.471860      1.0000       1.0079
     124     1 H    1    7.376710    1.397750    5.125300      1.0000       1.0079
     125     1 H    1    5.649900    4.560300    2.711990      1.0000       1.0079
     126     1 H    1    9.303760   12.354900    4.408290      1.0000       1.0079
     127     1 H    1    6.114350   10.963500   10.285900      1.0000       1.0079
     128     1 H    1    6.038150   12.109200    8.111200      1.0000       1.0079
     129     2 O    8    7.269010    3.355540    7.674140      6.0000      15.9994
     130     2 O    8   12.210700    8.926090   11.651900      6.0000      15.9994
     131     2 O    8   10.094600    9.459760    4.439460      6.0000      15.9994
     132     2 O    8    2.035400    5.351490    1.170660      6.0000      15.9994
     133     2 O    8    8.246780    2.737510    1.574680      6.0000      15.9994
     134     2 O    8    5.019020    3.269600   10.480000      6.0000      15.9994
     135     2 O    8    9.041160    9.820770    9.140920      6.0000      15.9994
     136     2 O    8    5.284120    6.318650    7.809010      6.0000      15.9994
     137     2 O    8   10.284800    0.028147    4.208880      6.0000      15.9994
     138     2 O    8    6.203730    6.884550   10.780300      6.0000      15.9994
     139     2 O    8    6.314620    4.610750    1.952950      6.0000      15.9994
     140     2 O    8    1.422530    1.835580    9.933380      6.0000      15.9994
     141     2 O    8    0.009864    8.746710    8.725720      6.0000      15.9994
     142     2 O    8   12.161400   11.264600    6.605470      6.0000      15.9994
     143     2 O    8    0.893833    1.655400    3.559570      6.0000      15.9994
     144     2 O    8    6.215790    7.254120    1.408960      6.0000      15.9994
     145     2 O    8    5.408680   11.432700   11.924300      6.0000      15.9994
     146     2 O    8   11.557900    3.742240   11.663100      6.0000      15.9994
     147     2 O    8   10.056700    8.534670    6.956640      6.0000      15.9994
     148     2 O    8    3.867910    7.293270    3.162980      6.0000      15.9994
     149     2 O    8   10.477200    0.014001    8.397200      6.0000      15.9994
     150     2 O    8    9.548490    1.258960   10.798200      6.0000      15.9994
     151     2 O    8    6.800900    3.682810    4.886420      6.0000      15.9994
     152     2 O    8   11.264500    2.471550    5.809640      6.0000      15.9994
     153     2 O    8    4.866150    5.989630    5.345970      6.0000      15.9994
     154     2 O    8    2.116330    9.379120    2.267220      6.0000      15.9994
     155     2 O    8    6.801840    1.311840   11.942500      6.0000      15.9994
     156     2 O    8   10.153800    3.014360    8.182230      6.0000      15.9994
     157     2 O    8   12.105200    6.234160    0.796907      6.0000      15.9994
     158     2 O    8    4.481110    8.599950    8.711920      6.0000      15.9994
     159     2 O    8    3.860170    0.975387   11.330600      6.0000      15.9994
     160     2 O    8    1.920280    2.615100   12.308400      6.0000      15.9994
     161     2 O    8    2.348720    7.672700   12.317100      6.0000      15.9994
     162     2 O    8    2.932290   10.244400   11.544300      6.0000      15.9994
     163     2 O    8    3.613090    5.884970   10.411300      6.0000      15.9994
     164     2 O    8   10.832000    1.100560    1.544590      6.0000      15.9994
     165     2 O    8    3.656720    1.084140    3.619580      6.0000      15.9994
     166     2 O    8    9.084710    5.871970    2.007420      6.0000      15.9994
     167     2 O    8    5.820870   11.758100    4.505810      6.0000      15.9994
     168     2 O    8    1.436080    4.478400    9.587540      6.0000      15.9994
     169     2 O    8    8.354100    5.454880   11.352700      6.0000      15.9994
     170     2 O    8    7.513250   11.383600    1.924730      6.0000      15.9994
     171     2 O    8    6.484630   10.804100    9.304570      6.0000      15.9994
     172     2 O    8   12.165800    5.880270    7.130490      6.0000      15.9994
     173     2 O    8    9.883690    4.769630    4.861300      6.0000      15.9994
     174     2 O    8    4.131210    2.289390    8.152360      6.0000      15.9994
     175     2 O    8    8.613450    8.814710    2.155600      6.0000      15.9994
     176     2 O    8    9.546020    8.584340   11.536300      6.0000      15.9994
     177     2 O    8   10.493200    5.238800    9.499250      6.0000      15.9994
     178     2 O    8   12.030100    7.839880    3.073490      6.0000      15.9994
     179     2 O    8   12.237800   10.908800    1.395730      6.0000      15.9994
     180     2 O    8    2.539770    4.188090    7.005130      6.0000      15.9994
     181     2 O    8    0.673013    5.193910    4.273720      6.0000      15.9994
     182     2 O    8    2.427510   10.521600    8.905930      6.0000      15.9994
     183     2 O    8    3.692220   10.047200    4.681750      6.0000      15.9994
     184     2 O    8    8.344780    1.234670    5.213460      6.0000      15.9994
     185     2 O    8    1.755740   11.970600    4.829520      6.0000      15.9994
     186     2 O    8   12.371300    0.024648   11.422800      6.0000      15.9994
     187     2 O    8    6.076530    0.476417    7.490680      6.0000      15.9994
     188     2 O    8    3.493760    4.080250    3.638780      6.0000      15.9994
     189     2 O    8    8.755170    6.268840    7.212170      6.0000      15.9994
     190     2 O    8    1.390450    1.418150    6.955780      6.0000      15.9994
     191     2 O    8    2.282860    0.244080    1.097300      6.0000      15.9994
     192     2 O    8   11.631900    3.860830    2.310690      6.0000      15.9994




 SCF PARAMETERS         Density guess:                                   RESTART
                        --------------------------------------------------------
                        max_scf:                                              20
                        max_scf_history:                                       0
                        max_diis:                                              4
                        --------------------------------------------------------
                        eps_scf:                                        3.00E-07
                        eps_scf_history:                                0.00E+00
                        eps_diis:                                       1.00E-01
                        eps_eigval:                                     1.00E-05
                        --------------------------------------------------------
                        level_shift [a.u.]:                                 0.00
                        --------------------------------------------------------
                        Outer loop SCF in use 
                        No variables optimised in outer loop
                        eps_scf                                         3.00E-07
                        max_scf                                               50
                        No outer loop optimization
                        step_size                                       5.00E-01

 PW_GRID| Information for grid number                                          1
 PW_GRID| Grid distributed over                                   140 processors
 PW_GRID| Real space group dimensions                                   140    1
 PW_GRID| the grid is blocked:                                                NO
 PW_GRID| Cutoff [a.u.]                                                    450.0
 PW_GRID| spherical cutoff:                                                   NO
 PW_GRID|   Bounds   1           -112     112                Points:         225
 PW_GRID|   Bounds   2           -112     112                Points:         225
 PW_GRID|   Bounds   3           -112     112                Points:         225
 PW_GRID| Volume element (a.u.^3)  0.1135E-02     Volume (a.u.^3)     12928.8948
 PW_GRID| Grid span                                                    FULLSPACE
 PW_GRID|   Distribution                         Average         Max         Min
 PW_GRID|   G-Vectors                            81361.6       81450       81225
 PW_GRID|   G-Rays                                 361.6         362         361
 PW_GRID|   Real Space Points                    81361.6      101250       50625

 PW_GRID| Information for grid number                                          2
 PW_GRID| Number of the reference grid                                         1
 PW_GRID| Grid distributed over                                   140 processors
 PW_GRID| Real space group dimensions                                    10   14
 PW_GRID| the grid is blocked:                                                NO
 PW_GRID| Cutoff [a.u.]                                                    150.0
 PW_GRID| spherical cutoff:                                                   NO
 PW_GRID|   Bounds   1            -66      65                Points:         132
 PW_GRID|   Bounds   2            -66      65                Points:         132
 PW_GRID|   Bounds   3            -66      65                Points:         132
 PW_GRID| Volume element (a.u.^3)  0.5621E-02     Volume (a.u.^3)     12928.8948
 PW_GRID| Grid span                                                    FULLSPACE
 PW_GRID|   Distribution                         Average         Max         Min
 PW_GRID|   G-Vectors                            16428.3       16764       16104
 PW_GRID|   G-Rays                                 124.5         127         122
 PW_GRID|   Real Space Points                    16428.3       18480       15444

 PW_GRID| Information for grid number                                          3
 PW_GRID| Number of the reference grid                                         1
 PW_GRID| Grid distributed over                                   140 processors
 PW_GRID| Real space group dimensions                                    10   14
 PW_GRID| the grid is blocked:                                                NO
 PW_GRID| Cutoff [a.u.]                                                     50.0
 PW_GRID| spherical cutoff:                                                   NO
 PW_GRID|   Bounds   1            -37      37                Points:          75
 PW_GRID|   Bounds   2            -37      37                Points:          75
 PW_GRID|   Bounds   3            -37      37                Points:          75
 PW_GRID| Volume element (a.u.^3)  0.3065E-01     Volume (a.u.^3)     12928.8948
 PW_GRID| Grid span                                                    FULLSPACE
 PW_GRID|   Distribution                         Average         Max         Min
 PW_GRID|   G-Vectors                             3013.4        3225        2850
 PW_GRID|   G-Rays                                  40.2          43          38
 PW_GRID|   Real Space Points                     3013.4        3600        2625

 PW_GRID| Information for grid number                                          4
 PW_GRID| Number of the reference grid                                         1
 PW_GRID| Grid distributed over                                   140 processors
 PW_GRID| Real space group dimensions                                    10   14
 PW_GRID| the grid is blocked:                                                NO
 PW_GRID| Cutoff [a.u.]                                                     16.7
 PW_GRID| spherical cutoff:                                                   NO
 PW_GRID|   Bounds   1            -22      21                Points:          44
 PW_GRID|   Bounds   2            -22      21                Points:          44
 PW_GRID|   Bounds   3            -22      21                Points:          44
 PW_GRID| Volume element (a.u.^3)  0.1518         Volume (a.u.^3)     12928.8948
 PW_GRID| Grid span                                                    FULLSPACE
 PW_GRID|   Distribution                         Average         Max         Min
 PW_GRID|   G-Vectors                              608.5         660         572
 PW_GRID|   G-Rays                                  13.8          15          13
 PW_GRID|   Real Space Points                      608.5         880         528

 POISSON| Solver                                                        PERIODIC
 POISSON| Periodicity                                                        XYZ

 RS_GRID| Information for grid number                                          1
 RS_GRID|   Bounds   1           -112     112                Points:         225
 RS_GRID|   Bounds   2           -112     112                Points:         225
 RS_GRID|   Bounds   3           -112     112                Points:         225
 RS_GRID| Real space distribution over                                  4 groups
 RS_GRID| Real space distribution along direction                              1
 RS_GRID| Border size                                                         32
 RS_GRID| Real space distribution over                                  5 groups
 RS_GRID| Real space distribution along direction                              2
 RS_GRID| Border size                                                         32
 RS_GRID| Real space distribution over                                  7 groups
 RS_GRID| Real space distribution along direction                              3
 RS_GRID| Border size                                                         32
 RS_GRID|   Distribution                         Average         Max         Min
 RS_GRID|   Planes                                 120.2         121         120
 RS_GRID|   Distribution                         Average         Max         Min
 RS_GRID|   Planes                                 109.0         109         109
 RS_GRID|   Distribution                         Average         Max         Min
 RS_GRID|   Planes                                  96.1          97          96

 RS_GRID| Information for grid number                                          2
 RS_GRID|   Bounds   1            -66      65                Points:         132
 RS_GRID|   Bounds   2            -66      65                Points:         132
 RS_GRID|   Bounds   3            -66      65                Points:         132
 RS_GRID| Real space distribution over                                  4 groups
 RS_GRID| Real space distribution along direction                              1
 RS_GRID| Border size                                                         34
 RS_GRID| Real space distribution over                                  5 groups
 RS_GRID| Real space distribution along direction                              2
 RS_GRID| Border size                                                         34
 RS_GRID| Real space distribution over                                  7 groups
 RS_GRID| Real space distribution along direction                              3
 RS_GRID| Border size                                                         34
 RS_GRID|   Distribution                         Average         Max         Min
 RS_GRID|   Planes                                 101.0         101         101
 RS_GRID|   Distribution                         Average         Max         Min
 RS_GRID|   Planes                                  94.4          95          94
 RS_GRID|   Distribution                         Average         Max         Min
 RS_GRID|   Planes                                  86.9          87          86

 RS_GRID| Information for grid number                                          3
 RS_GRID|   Bounds   1            -37      37                Points:          75
 RS_GRID|   Bounds   2            -37      37                Points:          75
 RS_GRID|   Bounds   3            -37      37                Points:          75
 RS_GRID| Real space fully replicated
 RS_GRID| Group size                                                           1

 RS_GRID| Information for grid number                                          4
 RS_GRID|   Bounds   1            -22      21                Points:          44
 RS_GRID|   Bounds   2            -22      21                Points:          44
 RS_GRID|   Bounds   3            -22      21                Points:          44
 RS_GRID| Real space fully replicated
 RS_GRID| Group size                                                           1

 Number of electrons:                                                        512
 Number of occupied orbitals:                                                256
 Number of molecular orbitals:                                               256

 Number of orbital functions:                                               1856
 Number of independent orbital functions:                                   1856

 Extrapolation method: initial_guess

 *** WARNING in qs_initial_guess.F:309 :: User requested to restart the    ***
 *** wavefunction from the file named: DPGEN-RESTART.wfn. This file does   ***
 *** not exist. Please check the existence of the file or change properly  ***
 *** the value of the keyword WFN_RESTART_FILE_NAME. Calculation continues ***
 *** using ATOMIC GUESS.                                                   ***


 Atomic guess: The first density matrix is obtained in terms of atomic orbitals
               and electronic configurations assigned to each atomic kind

 Guess for atomic kind: H

 Electronic structure
    Total number of core electrons                                          0.00
    Total number of valence electrons                                       1.00
    Total number of electrons                                               1.00
    Multiplicity                                                   not specified
    S      1.00


 *******************************************************************************
                  Iteration          Convergence                     Energy [au]
 *******************************************************************************
                          1        0.361319E-02                  -0.424491347120
                          2        0.454523E-03                  -0.424505862788
                          3        0.159021E-04                  -0.424506094764
                          4        0.538653E-08                  -0.424506095046

 Energy components [Hartree]           Total Energy ::           -0.424506095046
                                        Band Energy ::           -0.197894472246
                                     Kinetic Energy ::            0.464014882390
                                   Potential Energy ::           -0.888520977436
                                      Virial (-V/T) ::            1.914854482380
                                        Core Energy ::           -0.480102335038
                                          XC Energy ::           -0.245559106595
                                     Coulomb Energy ::            0.301155346588
                       Total Pseudopotential Energy ::           -0.962987329588
                       Local Pseudopotential Energy ::           -0.962987329588
                    Nonlocal Pseudopotential Energy ::            0.000000000000
                                        Confinement ::            0.188701121593

 Orbital energies  State     L     Occupation   Energy[a.u.]          Energy[eV]

                       1     0          1.000      -0.197894           -5.384982


 Total Electron Density at R=0:                                         0.235295

 Guess for atomic kind: O

 Electronic structure
    Total number of core electrons                                          2.00
    Total number of valence electrons                                       6.00
    Total number of electrons                                               8.00
    Multiplicity                                                   not specified
    S   [  2.00] 2.00
    P      4.00


 *******************************************************************************
                  Iteration          Convergence                     Energy [au]
 *******************************************************************************
                          1        0.719714                     -15.555056246758
                          2        0.621778                     -15.565854545790
                          3        0.171253E-01                 -15.639924873802
                          4        0.104641E-02                 -15.639982405456
                          5        0.115043E-04                 -15.639982603263
                          6        0.550463E-05                 -15.639982603281
                          7        0.788096E-09                 -15.639982603286

 Energy components [Hartree]           Total Energy ::          -15.639982603286
                                        Band Energy ::           -2.990838019877
                                     Kinetic Energy ::           11.773896073810
                                   Potential Energy ::          -27.413878677096
                                      Virial (-V/T) ::            2.328360850583
                                        Core Energy ::          -26.117385594898
                                          XC Energy ::           -3.152484135072
                                     Coulomb Energy ::           13.629887126683
                       Total Pseudopotential Energy ::          -37.926479289607
                       Local Pseudopotential Energy ::          -39.218786270576
                    Nonlocal Pseudopotential Energy ::            1.292306980968
                                        Confinement ::            0.351976209001

 Orbital energies  State     L     Occupation   Energy[a.u.]          Energy[eV]

                       1     0          2.000      -0.855715          -23.285179

                       1     1          4.000      -0.319852           -8.703621


 Total Electron Density at R=0:                                         0.000006
 Re-scaling the density matrix to get the right number of electrons
                  # Electrons              Trace(P)               Scaling factor
                          512               512.001                        1.000


 SCF WAVEFUNCTION OPTIMIZATION

  ----------------------------------- OT ---------------------------------------
  Minimizer      : CG                  : conjugate gradient
  Preconditioner : FULL_SINGLE_INVERSE : inversion of 
                                         H + eS - 2*(Sc)(c^T*H*c+const)(Sc)^T
  Precond_solver : DEFAULT
  Line search    : 2PNT                : 2 energies, one gradient
  stepsize       :    0.08000000                  energy_gap     :    0.10000000
  eps_taylor     :   0.10000E-15                  max_taylor     :             4
  ----------------------------------- OT ---------------------------------------

  Step     Update method      Time    Convergence         Total energy    Change
  ------------------------------------------------------------------------------
     1 OT CG       0.80E-01    5.6     0.02676129     -1052.6356678156 -1.05E+03
     2 OT LS       0.17E+00    4.5                    -1073.4542602110
     3 OT CG       0.17E+00    9.7     0.02033808     -1080.6041759556 -2.80E+01
     4 OT LS       0.12E+00    4.5                    -1089.9001914838
     5 OT CG       0.12E+00    9.7     0.01447417     -1091.9746581129 -1.14E+01
     6 OT LS       0.11E+00    4.5                    -1097.1602859436
     7 OT CG       0.11E+00    9.7     0.00757357     -1097.2391807186 -5.26E+00
     8 OT LS       0.15E+00    4.5                    -1099.0972773652
     9 OT CG       0.15E+00    9.7     0.00532601     -1099.2058533826 -1.97E+00
    10 OT LS       0.13E+00    4.5                    -1099.9569958741
    11 OT CG       0.13E+00    9.7     0.00386780     -1099.9974683510 -7.92E-01
    12 OT LS       0.18E+00    4.5                    -1100.5695969962
    13 OT CG       0.18E+00    9.7     0.00308188     -1100.6086942650 -6.11E-01
    14 OT LS       0.14E+00    4.5                    -1100.8920524707
    15 OT CG       0.14E+00    9.7     0.00243510     -1100.9197572266 -3.11E-01
    16 OT LS       0.17E+00    4.5                    -1101.1448577034
    17 OT CG       0.17E+00    9.7     0.00175897     -1101.1478423357 -2.28E-01
    18 OT LS       0.16E+00    4.5                    -1101.2589194631
    19 OT CG       0.16E+00    9.7     0.00131471     -1101.2595462004 -1.12E-01
    20 OT LS       0.15E+00    4.5                    -1101.3194499010

  Leaving inner SCF loop after reaching    20 steps.


  Electronic density on regular grids:       -512.0000000000       -0.0000000000
  Core density on regular grids:              512.0000000000       -0.0000000000
  Total charge density on r-space grids:       -0.0000000000
  Total charge density g-space grids:          -0.0000000000

  Overlap energy of the core charge distribution:               0.00000241006805
  Self energy of the core charge distribution:              -2884.39155930701281
  Core Hamiltonian energy:                                    831.23735241528959
  Hartree energy:                                            1222.91376659550519
  Exchange-correlation energy:                               -271.07901201484202

  Total energy:                                             -1101.31944990099191

  outer SCF iter =    1 RMS gradient =   0.13E-02 energy =      -1101.3194499010

  ----------------------------------- OT ---------------------------------------
  Minimizer      : CG                  : conjugate gradient
  Preconditioner : FULL_SINGLE_INVERSE : inversion of 
                                         H + eS - 2*(Sc)(c^T*H*c+const)(Sc)^T
  Precond_solver : DEFAULT
  Line search    : 2PNT                : 2 energies, one gradient
  stepsize       :    0.08000000                  energy_gap     :    0.10000000
  eps_taylor     :   0.10000E-15                  max_taylor     :             4
  ----------------------------------- OT ---------------------------------------

  Step     Update method      Time    Convergence         Total energy    Change
  ------------------------------------------------------------------------------
     1 OT CG       0.80E-01   14.2     0.00127393     -1101.3196571878 -6.01E-02
     2 OT LS       0.17E+00    4.5                    -1101.3664538080
     3 OT CG       0.17E+00    9.6     0.00071427     -1101.3831499812 -6.35E-02
     4 OT LS       0.11E+00    4.5                    -1101.3928308413
     5 OT CG       0.11E+00    9.6     0.00025108     -1101.3962750813 -1.31E-02
     6 OT LS       0.10E+00    4.5                    -1101.3978256202
     7 OT CG       0.10E+00    9.6     0.00009990     -1101.3978303251 -1.56E-03
     8 OT LS       0.11E+00    4.5                    -1101.3980944998
     9 OT CG       0.11E+00    9.6     0.00004350     -1101.3980959271 -2.66E-04
    10 OT LS       0.11E+00    4.5                    -1101.3981451371
    11 OT CG       0.11E+00    9.6     0.00001838     -1101.3981451644 -4.92E-05
    12 OT LS       0.12E+00    4.5                    -1101.3981545304
    13 OT CG       0.12E+00    9.6     0.00000819     -1101.3981545718 -9.41E-06
    14 OT LS       0.12E+00    4.5                    -1101.3981564543
    15 OT CG       0.12E+00    9.6     0.00000344     -1101.3981564545 -1.88E-06
    16 OT LS       0.12E+00    4.5                    -1101.3981568005
    17 OT CG       0.12E+00    9.6     0.00000153     -1101.3981568011 -3.47E-07
    18 OT LS       0.12E+00    4.5                    -1101.3981568693
    19 OT CG       0.12E+00    9.7     0.00000065     -1101.3981568693 -6.82E-08
    20 OT LS       0.12E+00    4.5                    -1101.3981568811

  Leaving inner SCF loop after reaching    20 steps.


  Electronic density on regular grids:       -512.0000000000        0.0000000000
  Core density on regular grids:              512.0000000000       -0.0000000000
  Total charge density on r-space grids:       -0.0000000000
  Total charge density g-space grids:          -0.0000000000

  Overlap energy of the core charge distribution:               0.00000241006805
  Self energy of the core charge distribution:              -2884.39155930701281
  Core Hamiltonian energy:                                    830.80986674306291
  Hartree energy:                                            1223.22853902367956
  Exchange-correlation energy:                               -271.04500575093721

  Total energy:                                             -1101.39815688113958

  outer SCF iter =    2 RMS gradient =   0.65E-06 energy =      -1101.3981568811

  ----------------------------------- OT ---------------------------------------
  Minimizer      : CG                  : conjugate gradient
  Preconditioner : FULL_SINGLE_INVERSE : inversion of 
                                         H + eS - 2*(Sc)(c^T*H*c+const)(Sc)^T
  Precond_solver : DEFAULT
  Line search    : 2PNT                : 2 energies, one gradient
  stepsize       :    0.08000000                  energy_gap     :    0.10000000
  eps_taylor     :   0.10000E-15                  max_taylor     :             4
  ----------------------------------- OT ---------------------------------------

  Step     Update method      Time    Convergence         Total energy    Change
  ------------------------------------------------------------------------------
     1 OT CG       0.80E-01   14.2     0.00000027     -1101.3981568812 -1.19E-08

  *** SCF run converged in     1 steps ***


  Electronic density on regular grids:       -512.0000000000        0.0000000000
  Core density on regular grids:              512.0000000000       -0.0000000000
  Total charge density on r-space grids:       -0.0000000000
  Total charge density g-space grids:          -0.0000000000

  Overlap energy of the core charge distribution:               0.00000241006805
  Self energy of the core charge distribution:              -2884.39155930701281
  Core Hamiltonian energy:                                    830.80987690814334
  Hartree energy:                                            1223.22853059306226
  Exchange-correlation energy:                               -271.04500748543819

  Total energy:                                             -1101.39815688117710

  outer SCF iter =    3 RMS gradient =   0.27E-06 energy =      -1101.3981568812
  outer SCF loop converged in   3 iterations or   41 steps


 !-----------------------------------------------------------------------------!
                     Mulliken Population Analysis

 #  Atom  Element  Kind  Atomic population                           Net charge
       1     H        1          0.775436                              0.224564
       2     H        1          0.769097                              0.230903
       3     H        1          0.765085                              0.234915
       4     H        1          0.762812                              0.237188
       5     H        1          0.767230                              0.232770
       6     H        1          0.789529                              0.210471
       7     H        1          0.789562                              0.210438
       8     H        1          0.769954                              0.230046
       9     H        1          0.773371                              0.226629
      10     H        1          0.778195                              0.221805
      11     H        1          0.792949                              0.207051
      12     H        1          0.770250                              0.229750
      13     H        1          0.774672                              0.225328
      14     H        1          0.751274                              0.248726
      15     H        1          0.769500                              0.230500
      16     H        1          0.786665                              0.213335
      17     H        1          0.743704                              0.256296
      18     H        1          0.764115                              0.235885
      19     H        1          0.774145                              0.225855
      20     H        1          0.736753                              0.263247
      21     H        1          0.757445                              0.242555
      22     H        1          0.774360                              0.225640
      23     H        1          0.760841                              0.239159
      24     H        1          0.763699                              0.236301
      25     H        1          0.762061                              0.237939
      26     H        1          0.771052                              0.228948
      27     H        1          0.760968                              0.239032
      28     H        1          0.753686                              0.246314
      29     H        1          0.755870                              0.244130
      30     H        1          0.781439                              0.218561
      31     H        1          0.752284                              0.247716
      32     H        1          0.753660                              0.246340
      33     H        1          0.744605                              0.255395
      34     H        1          0.759479                              0.240521
      35     H        1          0.787704                              0.212296
      36     H        1          0.760007                              0.239993
      37     H        1          0.774055                              0.225945
      38     H        1          0.778262                              0.221738
      39     H        1          0.771142                              0.228858
      40     H        1          0.733949                              0.266051
      41     H        1          0.769392                              0.230608
      42     H        1          0.771737                              0.228263
[...]
    187      2      O           0.00169075    -0.01472001     0.01403397
    188      2      O           0.00485273     0.01035438     0.00946013
    189      2      O           0.01840659    -0.00684563    -0.00866942
    190      2      O          -0.01147434    -0.00249461     0.01012855
    191      2      O          -0.02110212     0.02602291     0.06455017
    192      2      O           0.00811273    -0.00747449    -0.01983094
 SUM OF ATOMIC FORCES           0.00570329    -0.00670990    -0.00362228     0.00952214

 STRESS| Analytical stress tensor [GPa]
 STRESS|                        x                   y                   z
 STRESS|      x       -6.93524697606E-01  -5.74989367456E-01   3.18117033610E-01
 STRESS|      y       -5.74989367456E-01  -5.35087419304E-01   2.90519340658E-01
 STRESS|      z        3.18117033610E-01   2.90519340658E-01  -7.60625109766E-01
 STRESS| 1/3 Trace                                            -6.63079075559E-01
 STRESS| Determinant                                          -2.43883446841E-02

 STRESS| Eigenvectors and eigenvalues of the analytical stress tensor [GPa]
 STRESS|                        1                   2                   3
 STRESS| Eigenvalues  -1.45999345862E+00  -4.95533817435E-01  -3.37099506204E-02
 STRESS|      x           0.639435038722      0.407370444781     -0.652052261689
 STRESS|      y           0.562241052408      0.330705395568      0.757970276679
 STRESS|      z          -0.524411889874      0.851283303056      0.017575770173

 -------------------------------------------------------------------------------
 -                                                                             -
 -                                DBCSR STATISTICS                             -
 -                                                                             -
 -------------------------------------------------------------------------------
 COUNTER                                    TOTAL       BLAS       SMM       ACC
 flops   171 x    32 x    18             18911232       0.0%    100.0%      0.0%
 flops   187 x    32 x    18             20680704       0.0%    100.0%      0.0%
 flops    32 x    32 x    32             33554432       0.0%    100.0%      0.0%
 flops   167 x    32 x    18             36937728       0.0%    100.0%      0.0%
 flops    32 x    32 x    18             47775744       0.0%    100.0%      0.0%
 flops   185 x    32 x    18             61378560       0.0%    100.0%      0.0%
 flops   171 x    32 x    32             67239936       0.0%    100.0%      0.0%
 flops   203 x    32 x    18             67350528       0.0%    100.0%      0.0%
 flops   187 x    32 x    32             73531392       0.0%    100.0%      0.0%
 flops   171 x    32 x    23             84575232       0.0%    100.0%      0.0%
 flops   187 x    32 x    23             92488704       0.0%    100.0%      0.0%
 flops     6 x    32 x    32            113246208       0.0%    100.0%      0.0%
 flops   167 x    32 x    32            131334144       0.0%    100.0%      0.0%
 flops    17 x    32 x    32            160432128       0.0%    100.0%      0.0%
 flops   167 x    32 x    23            165193728       0.0%    100.0%      0.0%
 flops   171 x    32 x    29            203120640       0.0%    100.0%      0.0%
 flops   185 x    32 x    32            218234880       0.0%    100.0%      0.0%
 flops    32 x    32 x    23            218750976       0.0%    100.0%      0.0%
 flops   187 x    32 x    29            222126080       0.0%    100.0%      0.0%
 flops   203 x    32 x    32            239468544       0.0%    100.0%      0.0%
 flops   185 x    32 x    23            274498560       0.0%    100.0%      0.0%
 flops   203 x    32 x    23            301206528       0.0%    100.0%      0.0%
 flops   167 x    32 x    29            396738560       0.0%    100.0%      0.0%
 flops    32 x    32 x    29            554483712       0.0%    100.0%      0.0%
 flops     6 x     6 x    32            608698368       0.0%    100.0%      0.0%
 flops   185 x    32 x    29            659251200       0.0%    100.0%      0.0%
 flops   203 x    32 x    29            723394560       0.0%    100.0%      0.0%
 flops    17 x     6 x    32            855638016       0.0%    100.0%      0.0%
 flops     6 x    17 x    32            855638016       0.0%    100.0%      0.0%
 flops    17 x    17 x    32           1231093760       0.0%    100.0%      0.0%
 flops     6 x    32 x     6           2113929216       0.0%    100.0%      0.0%
 flops    17 x    32 x     6           2994733056       0.0%    100.0%      0.0%
 flops     6 x    32 x    17           2994733056       0.0%    100.0%      0.0%
 flops    17 x    32 x    17           4242538496       0.0%    100.0%      0.0%
 flops inhomo. stacks                   248586240     100.0%      0.0%      0.0%
 flops total                        21.331493E+09       1.2%     98.8%      0.0%
 flops max/rank                    276.754432E+06       1.3%     98.7%      0.0%
 matmuls inhomo. stacks                      1164     100.0%      0.0%      0.0%
 matmuls total                            2700696       0.0%    100.0%      0.0%
 number of processed stacks                199032       0.6%     99.4%      0.0%
 average stack size                                     1.0      13.6       0.0
 marketing flops                    25.394414E+09
 -------------------------------------------------------------------------------
 # multiplications                             24
 max memory usage/rank             486.674432E+06
 # max total images/rank                        7
 # max 3D layers                                1
 # MPI messages exchanged                  430080
 MPI messages size (bytes):
  total size                         4.479222E+09
  min size                           0.000000E+00
  max size                          56.840000E+03
  average size                      10.414857E+03
 MPI breakdown and total messages size (bytes):
             size <=      128              236364                        0
       128 < size <=     8192               95152                644065280
      8192 < size <=    32768               18481                464575064
     32768 < size <=   131072               80083               3370581416
    131072 < size <=  4194304                   0                        0
   4194304 < size <= 16777216                   0                        0
  16777216 < size                               0                        0
 -------------------------------------------------------------------------------

 *** WARNING in dbcsr_mm.F:294 :: Using a non-square number of MPI ranks ***
 *** might lead to poor performance. Used ranks: 140 Suggested: 144 289  ***

 -------------------------------------------------------------------------------
 -                                                                             -
 -                      DBCSR MESSAGE PASSING PERFORMANCE                      -
 -                                                                             -
 -------------------------------------------------------------------------------
 ROUTINE             CALLS      AVE VOLUME [Bytes]
 MP_Bcast               35                     12.
 MP_Allreduce          198                     15.
 MP_Alltoall           221                  58793.
 MP_ISend             6286                   5859.
 MP_IRecv             6286                   5764.
 -------------------------------------------------------------------------------

 -------------------------------------------------------------------------------
 -                                                                             -
 -                                GRID STATISTICS                              -
 -                                                                             -
 -------------------------------------------------------------------------------
 LP    KERNEL             BACKEND                              COUNT     PERCENT
 4     collocate ortho    REF                                3025926      15.56%
 2     collocate ortho    REF                                2761438      14.20%
 5     integrate ortho    REF                                2285282      11.75%
 3     collocate ortho    REF                                1809126       9.30%
 5     collocate ortho    REF                                1809126       9.30%
 4     integrate ortho    REF                                1512963       7.78%
 7     integrate ortho    REF                                1512963       7.78%
 2     integrate ortho    REF                                1380719       7.10%
 6     integrate ortho    REF                                1036807       5.33%
 3     integrate ortho    REF                                 904563       4.65%
 8     integrate ortho    REF                                 904563       4.65%
 6     collocate ortho    REF                                 264488       1.36%
 9     integrate ortho    REF                                 132244       0.68%
 0     collocate general  REF                                  53760       0.28%
 0     integrate general  REF                                  26880       0.14%
 3     integrate general  REF                                  26880       0.14%
 -------------------------------------------------------------------------------

 MEMORY| Estimated peak process memory [MiB]                                 465

 -------------------------------------------------------------------------------
 ----                             MULTIGRID INFO                            ----
 -------------------------------------------------------------------------------
 count for grid        1:        2092966          cutoff [a.u.]          450.00
 count for grid        2:         939886          cutoff [a.u.]          150.00
 count for grid        3:        1088542          cutoff [a.u.]           50.00
 count for grid        4:        1659649          cutoff [a.u.]           16.67
 total gridlevel count  :        5781043

 -------------------------------------------------------------------------------
 -                                                                             -
 -                         MESSAGE PASSING PERFORMANCE                         -
 -                                                                             -
 -------------------------------------------------------------------------------

 ROUTINE             CALLS      AVE VOLUME [Bytes]
 MP_Group                4
 MP_Bcast              693                 361756.
 MP_Allreduce         1587                   1176.
 MP_Sync                 4
 MP_Alltoall           104
 MP_ISendRecv         2224                  17920.
 MP_Wait              2980
 MP_ISend              652                 267344.
 MP_IRecv              652                 267344.
 MP_Recv                13                 282112.
 -------------------------------------------------------------------------------


 -------------------------------------------------------------------------------
 -                                                                             -
 -                           R E F E R E N C E S                               -
 -                                                                             -
 -------------------------------------------------------------------------------
 
 CP2K version 8.2, the CP2K developers group (2021).
 CP2K is freely available from https://www.cp2k.org/ .

 Kuehne,Thomas D.; Iannuzzi,Marcella; Del Ben,Mauro;
 Rybkin,Vladimir V.; Seewald,Patrick; Stein,Frederick; Laino,Teodoro;
 Khaliullin,Rustam Z.; Schuett,Ole; Schiffmann,Florian; Golze,Dorothea;
 Wilhelm,Jan; Chulkov,Sergey; Bani-Hashemian,Mohammad Hossein;
 Weber,Valery; Borstnik,Urban; Taillefumier,Mathieu;
 Jakobovits,Alice Shoshana; Lazzaro,Alfio; Pabst,Hans; Mueller,Tiziano;
 Schade,Robert; Guidon,Manuel; Andermatt,Samuel; Holmberg,Nico;
 Schenter,Gregory K.; Hehn,Anna; Bussy,Augustin; Belleflamme,Fabian;
 Tabacchi,Gloria; Gloess,Andreas; Lass,Michael; Bethune,Iain;
 Mundy,Christopher J.; Plessl,Christian; Watkins,Matt;
 VandeVondele,Joost; Krack,Matthias; Hutter,Juerg. 
 The Journal of Chemical Physics, 152 (19), (2020). 
 CP2K: An electronic structure and molecular dynamics software package -
 Quickstep: Efficient and accurate electronic structure calculations.
 https://doi.org/10.1063/5.0007045

 Lehtola, S; Steigemann, C; Oliveira, MJT; Marques, MAL. 
 SoftwareX, 7, 1-5 (2018). 
 Recent developments in libxc - A comprehensive library of functionals
 for density functional theory.
 https://doi.org/10.1016/j.softx.2017.11.002

 Schuett, Ole; Messmer, Peter; Hutter, Juerg; VandeVondele, Joost. 
 Electronic Structure Calculations on Graphics Processing Units, John
 Wiley & Sons, Ltd, 173-190 (2016). 
 GPU-Accelerated Sparse Matrix-Matrix Multiplication for
 Linear Scaling Density Functional Theory.
 https://doi.org/10.1002/9781118670712.ch8

 Heinecke, A; Henry, G; Hutchinson, M; Pabst, H. 
 Proceedings of Intl. Supercomputing Conference, 981-991 (2016). 
 LIBXSMM: Accelerating Small Matrix Multiplications
 by Runtime Code Generation.
 https://doi.org/10.1109/SC.2016.83

 Borstnik, U; VandeVondele, J; Weber, V; Hutter, J. 
 PARALLEL COMPUTING, 40 (5-6), 47-58 (2014). 
 Sparse matrix multiplication: The distributed block-compressed sparse
 row library.
 https://doi.org/10.1016/j.parco.2014.03.012

 Hutter, J; Iannuzzi, M; Schiffmann, F; VandeVondele, J. 
 WIREs Comput Mol Sci., 4 (1), 15-25 (2014). 
 CP2K: atomistic simulations of condensed matter systems.
 https://doi.org/10.1002/wcms.1159

 Marek, A; Blum, V; Johanni, R; Havu, V; Lang, B; Auckenthaler, T;
 Heinecke, A; Bungartz, H; Lederer, H. 
 Journal of Physics: Condensed Matter, 26 (21), (2014). 
 The ELPA library: scalable parallel eigenvalue solutions for
 electronic structure
 theory and computational science.
 https://doi.org/10.1088/0953-8984/26/21/213201

 Marques, MAL; Oliveira, MJT; Burnus, T. 
 COMPUTER PHYSICS COMMUNICATIONS, 183 (10), 2272-2281 (2012). 
 LIBXC: A library of exchange and correlation functionals for density
 functional theory.
 https://doi.org/10.1016/j.cpc.2012.05.007

 VandeVondele, J; Hutter, J. 
 JOURNAL OF CHEMICAL PHYSICS, 127 (11), 114105 (2007). 
 Gaussian basis sets for accurate calculations on molecular systems in
 gas and condensed phases.
 https://doi.org/10.1063/1.2770708

 Krack, M. 
 THEORETICAL CHEMISTRY ACCOUNTS, 114 (1-3), 145-152 (2005). 
 Pseudopotentials for H to Kr optimized for gradient-corrected
 exchange-correlation functionals.
 https://doi.org/10.1007/s00214-005-0655-y

 VandeVondele, J; Krack, M; Mohamed, F; Parrinello, M; Chassaing, T;
 Hutter, J. COMPUTER PHYSICS COMMUNICATIONS, 167 (2), 103-128 (2005). 
 QUICKSTEP: Fast and accurate density functional calculations using a
 mixed Gaussian and plane waves approach.
 https://doi.org/10.1016/j.cpc.2004.12.014

 Frigo, M; Johnson, SG. 
 PROCEEDINGS OF THE IEEE, 93 (2), 216-231 (2005). 
 The design and implementation of FFTW3.
 https://doi.org/10.1109/JPROC.2004.840301

 VandeVondele, J; Hutter, J. 
 JOURNAL OF CHEMICAL PHYSICS, 118 (10), 4365-4369 (2003). 
 An efficient orbital transformation method for electronic structure
 calculations.
 https://doi.org/10.1063/1.1543154

 Hartwigsen, C; Goedecker, S; Hutter, J. 
 PHYSICAL REVIEW B, 58 (7), 3641-3662 (1998). 
 Relativistic separable dual-space Gaussian pseudopotentials from H to Rn.
 https://doi.org/10.1103/PhysRevB.58.3641

 Lippert, G; Hutter, J; Parrinello, M. 
 MOLECULAR PHYSICS, 92 (3), 477-487 (1997). 
 A hybrid Gaussian and plane wave density functional scheme.
 https://doi.org/10.1080/002689797170220

 Goedecker, S; Teter, M; Hutter, J. 
 PHYSICAL REVIEW B, 54 (3), 1703-1710 (1996). 
 Separable dual-space Gaussian pseudopotentials.
 https://doi.org/10.1103/PhysRevB.54.1703


 -------------------------------------------------------------------------------
 -                                                                             -
 -                                T I M I N G                                  -
 -                                                                             -
 -------------------------------------------------------------------------------
 SUBROUTINE                       CALLS  ASD         SELF TIME        TOTAL TIME
                                MAXIMUM       AVERAGE  MAXIMUM  AVERAGE  MAXIMUM
 CP2K                                 1  1.0    0.026    0.031   39.839   39.840
 qs_forces                            1  2.0    0.000    0.001   39.552   39.553
 rebuild_ks_matrix                    2  5.5    0.000    0.000   26.279   26.280
 qs_ks_build_kohn_sham_matrix         2  6.5    0.001    0.001   26.279   26.280
 sum_up_and_integrate                 2  7.5    0.001    0.001   25.734   25.738
 integrate_v_rspace                   4  8.5    0.000    0.000   25.733   25.737
 grid_integrate_task_list             4  9.5   20.431   25.382   20.431   25.382
 qs_ks_update_qs_env_forces           1  3.0    0.000    0.000   21.123   21.124
 qs_energies                          1  3.0    0.000    0.000   15.752   15.752
 scf_env_do_scf                       1  4.0    0.000    0.000    9.576    9.576
 qs_rho_update_rho                    2  6.0    0.000    0.000    8.352    8.352
 calculate_rho_elec                   4  7.0    0.002    0.003    8.352    8.352
 grid_collocate_task_list             4  8.0    7.623    8.012    7.623    8.012
 mp_alltoall_d11v                    91 10.6    5.027    7.517    5.027    7.517
 rs_gather_matrices                   4  9.5    0.001    0.001    5.015    7.504
 init_scf_loop                        1  5.0    0.000    0.000    5.339    5.340
 qs_ks_update_qs_env                  2  6.0    0.000    0.000    5.156    5.157
 init_scf_run                         1  4.0    0.000    0.000    4.407    4.408
 scf_env_initial_rho_setup            1  5.0    0.000    0.000    4.407    4.407
 scf_env_do_scf_inner_loop            1  5.0    0.000    0.000    4.231    4.236
 build_core_hamiltonian_matrix_       1  3.0    0.000    0.000    1.519    2.674
 rs_pw_transfer                      36  9.5    0.000    0.001    1.613    2.169
 mp_sum_d                           602  4.0    1.238    2.036    1.238    2.036
 build_core_ppl_forces                1  4.0    1.001    1.926    1.001    1.926
 mp_waitany                         736 11.2    1.259    1.801    1.259    1.801
 calculate_ecore_overlap              2  4.0    0.000    0.000    1.157    1.792
 rs_pw_transfer_RS2PW_450             6  9.5    0.070    0.076    1.236    1.787
 qs_energies_init_hamiltonians        1  4.0    0.000    0.000    1.668    1.668
 build_core_hamiltonian_matrix        1  5.0    0.000    0.000    0.776    1.529
 qs_env_update_s_mstruct              1  5.0    0.000    0.000    0.882    1.238
 calculate_rho_core                   1  6.0    0.003    0.004    0.808    1.165
 build_core_ppl                       1  6.0    0.512    1.098    0.512    1.098
 density_rs2pw                        4  8.0    0.000    0.000    0.715    1.016
 -------------------------------------------------------------------------------

 The number of warnings for this run is : 2
 
 -------------------------------------------------------------------------------
  **** **** ******  **  PROGRAM ENDED AT                 2023-02-28 15:15:08.475
 ***** ** ***  *** **   PROGRAM RAN ON                                     cu037
 **    ****   ******    PROGRAM RAN BY                                      whxu
 ***** **    ** ** **   PROGRAM PROCESS ID                                 23973
  **** **  *******  **  PROGRAM STOPPED IN /public/groups/chenggroup/tmp/ai2-kit
                                           -debug/dpgen-demo/iters-000/label-cp2
                                           k/tasks/000000
