ITEM: TIMESTEP
0
ITEM: NUMBER OF ATOMS
192
ITEM: BOX BOUNDS xy xz yz pp pp pp
0.0000000000000000e+00 1.2420000076299999e+01 0.0000000000000000e+00
0.0000000000000000e+00 1.2420000076299999e+01 0.0000000000000000e+00
0.0000000000000000e+00 1.2420000076299999e+01 0.0000000000000000e+00
ITEM: ATOMS id type x y z fx fy fz
1 2 0.613889 5.74221 0.851211 -1.78973 1.05337 0.197143
2 2 4.83053 1.7873 7.72482 0.473366 -0.534696 -0.275986
3 2 9.04171 7.68865 11.6001 1.27079 2.06694 -0.325198
4 2 9.41056 8.86844 10.6519 -0.461501 0.878689 -2.13097
5 2 2.34697 3.2385 0.567929 -1.01228 -1.09241 -1.34074
6 2 1.9233 1.70759 0.287586 0.0979057 0.796067 0.264048
7 2 0.198061 7.34595 3.6649 -0.109268 -0.00519381 0.066708
8 2 11.8825 7.15921 2.36765 0.0933285 0.4612 -0.133418
9 2 8.46216 0.987052 6.19048 -0.375132 0.536313 -2.00964
10 2 0.457125 7.88753 8.63911 -0.073944 0.160304 -0.474686
11 2 9.02754 2.92065 0.99012 -1.30994 -0.06083 0.716933
12 2 7.34199 2.37927 7.82242 -0.141431 1.04399 -0.302507
13 2 12.0854 3.73421 1.41961 -1.33822 -0.135725 1.28257
14 2 10.819 3.30573 2.36166 0.991712 0.261689 -0.300984
15 2 5.89934 1.63602 12.142 0.582327 0.130257 -0.144939
16 2 7.3467 1.50471 0.337121 -0.656118 0.414769 -0.768875
17 2 7.55202 3.45259 1.44728 0.873762 -0.462479 0.350365
18 2 12.0858 8.64347 9.61444 -0.267291 0.535411 1.04611
19 2 5.96509 3.37602 10.3291 0.408207 -0.450672 -0.0223095
20 2 5.1932 6.19301 6.32402 -0.727117 -0.330438 -1.37698
21 2 9.11512 9.01407 2.90734 1.38328 0.722213 2.85948
22 2 8.18128 3.6446 7.56769 0.383837 -0.133845 0.169232
23 2 3.9643 5.95563 9.45324 -0.796532 -0.157835 1.69057
24 2 9.69377 11.801 8.42667 1.45085 0.906131 0.296746
25 2 5.31722 12.368 11.5332 0.0651762 -1.51424 1.43554
26 2 9.27596 9.5307 8.26443 0.314447 -0.601623 -1.06062
27 2 6.30552 5.62739 1.82642 0.339273 -1.78597 -0.183464
28 2 10.5375 4.24922 5.34179 0.161487 -0.867519 0.176102
29 2 10.5136 5.55599 4.61822 -1.66902 -1.82747 0.247272
30 2 4.55356 2.62181 9.0009 -0.536657 -0.113735 -0.734752
31 2 5.71533 11.4837 0.409803 0.454734 0.271218 0.258243
32 2 4.62674 8.434 9.68228 -0.529356 0.237955 -1.20568
33 2 3.55223 8.70495 8.56006 -1.11009 0.500812 0.0774665
34 2 10.083 9.1185 5.31802 -0.396142 -0.39309 1.84393
35 2 10.5152 0.418031 9.29281 -0.331166 -0.557558 -0.456573
36 2 10.9545 9.17065 4.18259 1.31009 -0.5808 -1.08774
37 2 6.94595 3.81747 5.84526 -0.287149 -0.454591 0.0600556
38 2 11.7647 10.6793 7.26258 -0.0929007 -0.440574 -0.299304
39 2 12.1862 12.0657 7.1274 -0.151044 0.744044 0.0734848
40 2 0.0375004 3.31005 11.6701 -0.981713 0.128419 -0.103929
41 2 10.8505 3.02149 11.6922 1.68728 1.00591 -0.224207
42 2 9.89878 0.788775 11.5653 0.598298 0.0721224 0.176279
43 2 8.65072 0.936091 10.799 -1.06415 0.143281 -0.236737
44 2 10.5011 2.62735 7.31626 -0.257537 0.646292 0.244024
45 2 10.29 2.2752 8.77127 -0.147561 -0.404972 0.522098
46 2 7.76317 3.6583 4.58038 -1.75123 -0.0150038 0.205828
47 2 8.04884 10.0532 9.15049 1.58116 -0.187719 -0.00527588
48 2 2.78882 5.38652 10.2979 -1.01141 -0.638711 -0.22731
49 2 2.44495 5.31962 2.06281 -0.175692 0.122766 -0.499574
50 2 3.63098 9.133 4.39367 0.995171 -0.360864 0.00461103
51 2 2.43736 6.10328 0.710181 0.0106743 0.546374 0.0417626
52 2 3.75597 0.865253 10.3557 0.0999487 0.0480072 0.817947
53 2 3.1344 7.33034 11.8366 -0.84169 0.07718 0.02892
54 2 1.85574 8.48983 2.04825 -0.226232 -0.749563 -0.0968087
55 2 4.56797 10.4024 4.70502 1.65302 0.112525 -0.251081
56 2 3.3795 3.17423 3.95327 0.00288903 -0.153506 0.151304
57 2 3.30422 1.79529 11.4384 0.318803 -0.451031 0.314118
58 2 3.93318 4.53529 4.39442 -0.279446 -0.0785734 -0.607335
59 2 0.30498 8.12245 11.8464 0.534589 0.258207 0.198019
60 2 2.59012 8.71774 12.3071 -0.826038 -2.31916 -0.175777
61 2 1.65149 1.60845 9.06438 0.471141 -0.551743 -2.47052
62 2 9.33313 7.77078 6.99121 1.19084 1.35774 0.0315303
63 2 2.78429 10.2856 10.5723 -0.00866126 0.299485 0.432379
64 2 10.7439 8.0642 7.52159 -0.443671 1.14206 -0.946258
65 2 6.92836 6.22183 11.0239 -0.931168 0.446301 -0.4864
66 2 11.8779 11.6398 11.4094 -0.281047 -1.09308 0.00118926
67 2 5.36389 6.53343 10.6623 -2.37334 -1.76047 0.00647709
68 2 0.257403 0.1027 12.2977 0.595886 -0.250071 2.00674
69 2 11.3018 8.53755 11.7738 0.239096 0.674462 -0.259093
70 2 1.11978 1.00356 10.3347 -0.397449 0.0897409 0.292963
71 2 1.55251 10.2179 8.74352 -1.82078 -0.926928 -0.147425
72 2 0.366323 0.802169 3.49271 0.987124 1.49901 0.373478
73 2 0.538778 2.21191 2.93293 -1.57297 2.35762 -2.2482
74 2 3.6728 1.69009 2.89684 0.0822089 0.276837 -1.22541
75 2 2.70253 0.993826 3.85496 0.328041 0.0321952 -0.176059
76 2 5.08495 12.2391 4.05887 0.349232 0.138902 0.364387
77 2 6.14098 7.33776 0.393614 -0.122523 -0.605004 1.51128
78 2 6.45775 11.634 3.79028 0.338245 -0.17264 -0.133804
79 2 6.74596 8.04658 1.58755 0.301982 -0.00849238 0.626122
80 2 8.02887 10.7136 1.51988 0.906406 -1.61237 -0.300663
81 2 7.80411 12.1648 1.51566 0.578321 1.90194 -0.696823
82 2 11.806 5.30173 7.83608 0.483248 0.182592 -0.41242
83 2 2.42754 11.386 8.47447 0.272942 0.107885 -0.0146835
84 2 4.52365 7.45786 2.47763 0.24141 0.093412 -0.274225
85 2 4.37284 6.91114 3.90571 -0.0838045 -0.130271 0.149329
86 2 9.27372 8.57618 1.53478 1.10248 -0.400928 -1.36804
87 2 4.78668 4.19683 10.6889 -0.678021 -0.27572 -0.0726843
88 2 11.1776 1.73139 5.18275 -0.952703 0.0693396 -0.314861
89 2 11.2343 4.85932 9.9486 1.31842 -0.29257 1.10963
90 2 10.0513 4.34562 9.17966 1.26784 1.7672 0.217082
91 2 12.1071 2.12718 6.23718 -0.462581 0.953801 -0.247898
92 2 11.8915 10.1963 0.785587 0.190875 0.898948 0.60674
93 2 0.686636 10.4889 1.53814 0.106461 0.0208466 0.55984
94 2 0.513865 5.41977 6.65753 -1.70351 0.567465 0.935151
95 2 11.4368 5.56003 0.917143 -0.232406 -0.259806 -0.0182572
96 2 2.48034 9.28363 3.22438 -0.830544 0.244081 -2.58706
97 2 5.5293 5.31933 5.07513 0.0796605 0.21635 0.00124142
98 2 2.48554 12.2155 0.308782 0.513914 -1.98234 -1.23893
99 2 5.14819 7.25614 8.05196 -0.192682 0.441983 0.166387
100 2 6.05356 6.02269 8.3507 -0.459554 0.192592 -0.791913
101 2 1.55407 4.97291 4.18457 3.23338 -0.786398 -0.143381
102 2 0.260916 4.70174 3.58345 -1.10904 -0.856267 -1.13436
103 2 3.08816 4.74922 6.36705 -0.815328 -1.00257 1.42856
104 2 3.16949 3.76014 7.59952 0.890482 -0.493271 -0.00440422
105 2 10.4243 0.630889 2.30354 -0.184281 0.223974 0.172849
106 2 3.73583 10.7327 11.7482 0.818052 0.273967 -0.00650016
107 2 9.01132 5.22014 2.71314 -0.273023 0.178401 0.186039
108 2 8.48166 6.60049 2.15945 -0.19244 0.0840279 0.524009
109 2 1.53933 4.5022 8.60773 -0.00806406 0.464982 0.617651
110 2 1.48983 3.52453 9.71997 -0.113435 -0.765422 0.779349
111 2 9.23681 5.37033 10.8328 -1.29395 0.224387 0.705913
112 2 8.58493 5.41047 12.3104 0.00722942 -0.00913219 -0.552736
113 2 11.7024 0.705439 1.58439 0.365659 -0.331433 -0.36746
114 2 10.5854 11.5434 4.24627 0.402259 -0.993618 0.113683
115 2 5.93559 10.0328 9.04782 0.0905284 0.338533 -0.199664
116 2 2.03909 12.131 1.91961 0.702998 0.573651 -2.17968
117 2 1.62666 0.804781 6.24285 0.306596 -0.0738901 -0.432402
118 2 1.98283 2.18005 6.90766 0.135418 0.0184996 -0.271639
119 2 9.45177 5.90452 7.80369 -0.394554 0.329666 0.0821222
120 2 5.86367 0.1017 6.63125 0.0283692 -0.178464 -0.584757
121 2 9.21613 6.16853 6.34295 -0.630014 -0.561955 0.323981
122 2 1.06264 11.3917 5.29798 1.05689 1.01394 -0.657626
123 2 2.40002 11.3215 4.47186 -0.0233825 0.116987 0.622362
124 2 7.37671 1.39775 5.1253 0.78018 -0.111521 0.129986
125 2 5.6499 4.5603 2.71199 1.23777 -0.607003 -1.38319
126 2 9.30376 12.3549 4.40829 1.48135 0.659642 -0.22421
127 2 6.11435 10.9635 10.2859 1.19278 -0.2591 -2.03239
128 2 6.03815 12.1092 8.1112 0.320396 0.886148 -0.426311
129 1 7.26901 3.35554 7.67414 -0.324457 -0.826099 0.290917
130 1 12.2107 8.92609 11.6519 -0.850354 -0.922655 0.091228
131 1 10.0946 9.45976 4.43946 -0.854405 1.10821 -1.23646
132 1 2.0354 5.35149 1.17066 0.667225 -1.11569 0.73803
133 1 8.24678 2.73751 1.57468 0.411787 0.302631 -0.891782
134 1 5.01902 3.2696 10.48 0.565545 1.02574 0.243494
135 1 9.04116 9.82077 9.14092 -1.73847 1.01668 1.22927
136 1 5.28412 6.31865 7.80901 0.776027 -0.779015 1.08244
137 1 10.2848 0.028147 4.20888 -1.18651 0.423747 -0.421338
138 1 6.20373 6.88455 10.7803 3.31808 1.52449 0.73312
139 1 6.31462 4.61075 1.95295 -1.67647 2.00655 1.35959
140 1 1.42253 1.83558 9.93338 -0.175014 0.0846286 1.76992
141 1 0.009864 8.74671 8.72572 0.448959 -0.609796 -0.605475
142 1 12.1614 11.2646 6.60547 0.364892 -0.546872 0.117973
143 1 0.893833 1.6554 3.55957 0.391908 -3.69362 2.06048
144 1 6.21579 7.25412 1.40896 -0.140721 0.959103 -2.38158
145 1 5.40868 11.4327 11.9243 -0.402132 0.225451 -1.72651
146 1 11.5579 3.74224 11.6631 -0.428889 -1.52394 0.283935
147 1 10.0567 8.53467 6.95664 -0.533636 -2.22382 1.11165
148 1 3.86791 7.29327 3.16298 -0.35581 0.107308 0.371877
149 1 10.4772 0.014001 8.3972 -1.14783 -0.419259 0.469621
150 1 9.54849 1.25896 10.7982 0.63388 0.0337818 0.356574
151 1 6.8009 3.68281 4.88642 1.72056 0.513203 -0.185686
152 1 11.2645 2.47155 5.80964 1.52049 -1.18721 0.737669
153 1 4.86615 5.98963 5.34597 0.839696 -0.549783 0.921884
154 1 2.11633 9.37912 2.26722 0.9167 0.927356 2.15147
155 1 6.80184 1.31184 11.9425 0.258538 0.278378 0.874626
156 1 10.1538 3.01436 8.18223 -0.0382553 -0.3899 -0.940608
157 1 12.1052 6.23416 0.796907 1.32074 -0.0314724 -0.103085
158 1 4.48111 8.59995 8.71192 1.90826 -0.322359 1.4625
159 1 3.86017 0.975387 11.3306 -0.661022 0.437868 -1.52469
160 1 1.92028 2.6151 12.3084 0.542662 0.895337 1.29012
161 1 2.34872 7.6727 12.3171 1.71806 2.42388 -0.356674
162 1 2.93229 10.2444 11.5443 -0.682811 -0.518935 0.0322955
163 1 3.61309 5.88497 10.4113 1.84894 0.696594 -1.90462
164 1 10.832 1.10056 1.54459 -0.486141 0.0324815 0.229943
165 1 3.65672 1.08414 3.61958 -0.0875493 -0.521742 1.2085
166 1 9.08471 5.87197 2.00742 0.635772 -0.287789 -0.910729
167 1 5.82087 11.7581 4.50581 -0.792194 0.29403 -0.161067
168 1 1.43608 4.4784 9.58754 0.0248787 0.803601 -1.04589
169 1 8.3541 5.45488 11.3527 1.58346 -0.116839 0.110809
170 1 7.51325 11.3836 1.92473 -1.67659 -0.148767 1.26135
171 1 6.48463 10.8041 9.30457 -1.68638 -0.225438 2.36132
172 1 12.1658 5.88027 7.13049 1.04679 -0.631465 -0.523648
173 1 9.88369 4.76963 4.8613 1.54858 2.89263 -0.6278
174 1 4.13121 2.28939 8.15236 -0.410628 0.757371 1.15319
175 1 8.61345 8.81471 2.1556 -2.47807 -0.338995 -1.64046
176 1 9.54602 8.58434 11.5363 -1.07437 -3.0978 2.53774
177 1 10.4932 5.2388 9.49925 -2.47907 -1.32012 -1.18113
178 1 12.0301 7.83988 3.07349 0.115534 -0.620006 0.00632089
179 1 12.2378 10.9088 1.39573 -0.261411 -1.18463 -0.826473
180 1 2.53977 4.18809 7.00513 0.206595 1.41704 -1.64429
181 1 0.673013 5.19391 4.27372 -2.14835 1.69359 1.38658
182 1 2.42751 10.5216 8.90593 1.23998 0.651155 -0.16826
183 1 3.69222 10.0472 4.68175 -2.2836 -0.195868 0.303271
184 1 8.34478 1.23467 5.21346 -0.790755 -0.327294 2.11598
185 1 1.75574 11.9706 4.82952 -1.27687 -1.31465 0.490992
186 1 12.3713 0.024648 11.4228 -0.13626 1.12999 -2.25816
187 1 6.07653 0.476417 7.49068 0.0697397 -0.702016 0.74004
188 1 3.49376 4.08025 3.63878 0.125329 0.512515 0.553179
189 1 8.75517 6.26884 7.21217 0.863079 -0.302322 -0.470346
190 1 1.39045 1.41815 6.95578 -0.589614 0.0234704 0.509382
191 1 2.28286 0.24408 1.0973 -1.07108 1.16198 3.18794
192 1 11.6319 3.86083 2.31069 0.47016 -0.393819 -1.00009