 DBCSR| CPU Multiplication driver                                           XSMM
 DBCSR| Multrec recursion limit                                              512
 DBCSR| Multiplication stack size                                           1000
 DBCSR| Maximum elements for images                                    UNLIMITED
 DBCSR| Multiplicative factor virtual images                                   1
 DBCSR| Use multiplication densification                                       T
 DBCSR| Multiplication size stacks                                             3
 DBCSR| Number of 3D layers                                               SINGLE
 DBCSR| Use MPI memory allocation                                              T
 DBCSR| Use RMA algorithm                                                      F
 DBCSR| Use Communication thread                                               T
 DBCSR| Communication thread load                                             87


  **** **** ******  **  PROGRAM STARTED AT               2024-11-18 14:24:07.756
 ***** ** ***  *** **   PROGRAM STARTED ON                               c53-026
 **    ****   ******    PROGRAM STARTED BY                                 jxzhu
 ***** **    ** ** **   PROGRAM PROCESS ID                                132846
  **** **  *******  **  PROGRAM STARTED IN /data/jxzhu/nnp/dp_workdir/3723ef2098
                                           b37b0a0caf6ab16a61682f69948045/calc/t
                                           ask.000.000000

 CP2K| version string:                                          CP2K version 7.1
 CP2K| source code revision number:                                  git:e635599
 CP2K| cp2kflags: libint fftw3 libxc elpa parallel mpi3 scalapack xsmm spglib   
 CP2K| is freely available from                            https://www.cp2k.org/
 CP2K| Program compiled at                           Mon Mar 8 20:53:19 CST 2021
 CP2K| Program compiled on                                                 mgt01
 CP2K| Program compiled for                                                local
 CP2K| Data directory path                                    /data/jxzhu/basis/
 CP2K| Input file name                                                 input.inp

 GLOBAL| Force Environment number                                              1
 GLOBAL| Basis set file name                                        BASIS_MOLOPT
 GLOBAL| Potential file name                                      GTH_POTENTIALS
 GLOBAL| MM Potential file name                                     MM_POTENTIAL
 GLOBAL| Coordinate file name                                          coord.xyz
 GLOBAL| Method name                                                        CP2K
 GLOBAL| Project name                                                       cp2k
 GLOBAL| Preferred FFT library                                             FFTW3
 GLOBAL| Preferred diagonalization lib.                                     ELPA
 GLOBAL| Run type                                                   ENERGY_FORCE
 GLOBAL| All-to-all communication in single precision                          F
 GLOBAL| FFTs using library dependent lengths                                  F
 GLOBAL| Global print level                                               MEDIUM
 GLOBAL| MPI I/O enabled                                                       T
 GLOBAL| Total number of message passing processes                            64
 GLOBAL| Number of threads for this process                                    1
 GLOBAL| This output is from process                                           0
 GLOBAL| CPU model name                Intel(R) Xeon(R) Gold 6226R CPU @ 2.90GHz
 GLOBAL| CPUID                                                              1003
 GLOBAL| Compiled for CPUID                                                 1002
 HINT in environment.F:814 The compiler target flags (x86_avx2) used to build
   this binary cannot exploit all extensions of this CPU model (x86_avx512).
   Consider compiler target flags as part of FCFLAGS and CFLAGS (ARCH file).

 MEMORY| system memory details [Kb]
 MEMORY|                        rank 0           min           max       average
 MEMORY| MemTotal            196481376     196481376     196481376     196481376
 MEMORY| MemFree             183654280     183654280     183702064     183678172
 MEMORY| Buffers                     0             0             0             0
 MEMORY| Cached                 376432        359444        376432        367938
 MEMORY| Slab                   403584        396708        403584        400146
 MEMORY| SReclaimable           107992        107248        107992        107620
 MEMORY| MemLikelyFree       184138704     184138704     184168756     184153730


 *** Fundamental physical constants (SI units) ***

 *** Literature: B. J. Mohr and B. N. Taylor,
 ***             CODATA recommended values of the fundamental physical
 ***             constants: 2006, Web Version 5.1
 ***             http://physics.nist.gov/constants

 Speed of light in vacuum [m/s]                             2.99792458000000E+08
 Magnetic constant or permeability of vacuum [N/A**2]       1.25663706143592E-06
 Electric constant or permittivity of vacuum [F/m]          8.85418781762039E-12
 Planck constant (h) [J*s]                                  6.62606896000000E-34
 Planck constant (h-bar) [J*s]                              1.05457162825177E-34
 Elementary charge [C]                                      1.60217648700000E-19
 Electron mass [kg]                                         9.10938215000000E-31
 Electron g factor [ ]                                     -2.00231930436220E+00
 Proton mass [kg]                                           1.67262163700000E-27
 Fine-structure constant                                    7.29735253760000E-03
 Rydberg constant [1/m]                                     1.09737315685270E+07
 Avogadro constant [1/mol]                                  6.02214179000000E+23
 Boltzmann constant [J/K]                                   1.38065040000000E-23
 Atomic mass unit [kg]                                      1.66053878200000E-27
 Bohr radius [m]                                            5.29177208590000E-11

 *** Conversion factors ***

 [u] -> [a.u.]                                              1.82288848426455E+03
 [Angstrom] -> [Bohr] = [a.u.]                              1.88972613288564E+00
 [a.u.] = [Bohr] -> [Angstrom]                              5.29177208590000E-01
 [a.u.] -> [s]                                              2.41888432650478E-17
 [a.u.] -> [fs]                                             2.41888432650478E-02
 [a.u.] -> [J]                                              4.35974393937059E-18
 [a.u.] -> [N]                                              8.23872205491840E-08
 [a.u.] -> [K]                                              3.15774647902944E+05
 [a.u.] -> [kJ/mol]                                         2.62549961709828E+03
 [a.u.] -> [kcal/mol]                                       6.27509468713739E+02
 [a.u.] -> [Pa]                                             2.94210107994716E+13
 [a.u.] -> [bar]                                            2.94210107994716E+08
 [a.u.] -> [atm]                                            2.90362800883016E+08
 [a.u.] -> [eV]                                             2.72113838565563E+01
 [a.u.] -> [Hz]                                             6.57968392072181E+15
 [a.u.] -> [1/cm] (wave numbers)                            2.19474631370540E+05
 [a.u./Bohr**2] -> [1/cm]                                   5.14048714338585E+03
 

 CELL_TOP| Volume [angstrom^3]:                                        10221.410
 CELL_TOP| Vector a [angstrom    16.869     0.000     0.000    |a| =      16.869
 CELL_TOP| Vector b [angstrom     0.000    14.609     0.000    |b| =      14.609
 CELL_TOP| Vector c [angstrom     0.000     0.000    41.478    |c| =      41.478
 CELL_TOP| Angle (b,c), alpha [degree]:                                   90.000
 CELL_TOP| Angle (a,c), beta  [degree]:                                   90.000
 CELL_TOP| Angle (a,b), gamma [degree]:                                   90.000
 CELL_TOP| Numerically orthorhombic:                                         YES

 GENERATE|  Preliminary Number of Bonds generated:                             0
 GENERATE|  Achieved consistency in connectivity generation.

 CELL| Volume [angstrom^3]:                                            10221.410
 CELL| Vector a [angstrom]:      16.869     0.000     0.000    |a| =      16.869
 CELL| Vector b [angstrom]:       0.000    14.609     0.000    |b| =      14.609
 CELL| Vector c [angstrom]:       0.000     0.000    41.478    |c| =      41.478
 CELL| Angle (b,c), alpha [degree]:                                       90.000
 CELL| Angle (a,c), beta  [degree]:                                       90.000
 CELL| Angle (a,b), gamma [degree]:                                       90.000
 CELL| Numerically orthorhombic:                                             YES

 CELL_REF| Volume [angstrom^3]:                                        10221.410
 CELL_REF| Vector a [angstrom    16.869     0.000     0.000    |a| =      16.869
 CELL_REF| Vector b [angstrom     0.000    14.609     0.000    |b| =      14.609
 CELL_REF| Vector c [angstrom     0.000     0.000    41.478    |c| =      41.478
 CELL_REF| Angle (b,c), alpha [degree]:                                   90.000
 CELL_REF| Angle (a,c), beta  [degree]:                                   90.000
 CELL_REF| Angle (a,b), gamma [degree]:                                   90.000
 CELL_REF| Numerically orthorhombic:                                         YES

 *******************************************************************************
 *******************************************************************************
 **                                                                           **
 **     #####                         ##              ##                      **
 **    ##   ##            ##          ##              ##                      **
 **   ##     ##                       ##            ######                    **
 **   ##     ##  ##   ##  ##   #####  ##  ##   ####   ##    #####    #####    **
 **   ##     ##  ##   ##  ##  ##      ## ##   ##      ##   ##   ##  ##   ##   **
 **   ##  ## ##  ##   ##  ##  ##      ####     ###    ##   ######   ######    **
 **    ##  ###   ##   ##  ##  ##      ## ##      ##   ##   ##       ##        **
 **     #######   #####   ##   #####  ##  ##  ####    ##    #####   ##        **
 **           ##                                                    ##        **
 **                                                                           **
 **                                                ... make the atoms dance   **
 **                                                                           **
 **            Copyright (C) by CP2K developers group (2000 - 2019)           **
 **                                                                           **
 *******************************************************************************

 DFT| Spin restricted Kohn-Sham (RKS) calculation                            RKS
 DFT| Multiplicity                                                             1
 DFT| Number of spin states                                                    1
 DFT| Charge                                                                   0
 DFT| Self-interaction correction (SIC)                                       NO
 DFT| Cutoffs: density                                              1.000000E-10
 DFT|          gradient                                             1.000000E-10
 DFT|          tau                                                  1.000000E-10
 DFT|          cutoff_smoothing_range                               0.000000E+00
 DFT| XC density smoothing                                                  NONE
 DFT| XC derivatives                                                          PW
 FUNCTIONAL| ROUTINE=NEW
 FUNCTIONAL| PBE:
 FUNCTIONAL| J.P.Perdew, K.Burke, M.Ernzerhof, Phys. Rev. Letter, vol. 77, n 18,
 FUNCTIONAL|  pp. 3865-3868, (1996){spin unpolarized}                           
 vdW POTENTIAL|                                                   Pair Potential
 vdW POTENTIAL|          DFT-D3 (Version 3.1)
 vdW POTENTIAL|          Potential Form: S. Grimme et al, JCP 132: 154104 (2010)
 vdW POTENTIAL|          Zero Damping
 vdW POTENTIAL|          Cutoff Radius [Bohr]:                             20.00
 vdW POTENTIAL|          s6 Scaling Factor:                               1.0000
 vdW POTENTIAL|          sr6 Scaling Factor:                              1.2170
 vdW POTENTIAL|          s8 Scaling Factor:                               0.7220
 vdW POTENTIAL|          Cutoff for CN calculation:                   0.1000E-05

 QS| Method:                                                                 GPW
 QS| Density plane wave grid type                        NON-SPHERICAL FULLSPACE
 QS| Number of grid levels:                                                    5
 QS| Density cutoff [a.u.]:                                                400.0
 QS| Multi grid cutoff [a.u.]: 1) grid level                               400.0
 QS|                           2) grid level                               133.3
 QS|                           3) grid level                                44.4
 QS|                           4) grid level                                14.8
 QS|                           5) grid level                                 4.9
 QS| Grid level progression factor:                                          3.0
 QS| Relative density cutoff [a.u.]:                                        20.0
 QS| Consistent realspace mapping and integration 
 QS| Interaction thresholds: eps_pgf_orb:                                3.2E-07
 QS|                         eps_filter_matrix:                          0.0E+00
 QS|                         eps_core_charge:                            1.0E-15
 QS|                         eps_rho_gspace:                             1.0E-13
 QS|                         eps_rho_rspace:                             1.0E-13
 QS|                         eps_gvg_rspace:                             3.2E-07
 QS|                         eps_ppl:                                    1.0E-02
 QS|                         eps_ppnl:                                   3.2E-09


 ATOMIC KIND INFORMATION

  1. Atomic kind: Pt                                    Number of atoms:     216

     Orbital Basis Set                      DZVP-A5-Q10-323-MOL-T1-DERIVED_SET-1

       Number of orbital shell sets:                                           1
       Number of orbital shells:                                               6
       Number of primitive Cartesian functions:                                5
       Number of Cartesian basis functions:                                   23
       Number of spherical basis functions:                                   20
       Norm type:                                                              2

       Normalised Cartesian orbitals:

                        Set   Shell   Orbital            Exponent    Coefficient

                          1       1    2s                2.521825       0.177473
                                                         1.453920      -0.063399
                                                         0.614053      -0.407089
                                                         0.232656       0.262254
                                                         0.074788       0.047371

                          1       2    3s                2.521825      -0.049056
                                                         1.453920       0.044904
                                                         0.614053      -0.009756
                                                         0.232656      -0.144709
                                                         0.074788       0.144085

                          1       3    3px               2.521825      -0.317572
                                                         1.453920       0.534826
                                                         0.614053      -0.489458
                                                         0.232656       0.245631
                                                         0.074788       0.018221
                          1       3    3py               2.521825      -0.317572
                                                         1.453920       0.534826
                                                         0.614053      -0.489458
                                                         0.232656       0.245631
                                                         0.074788       0.018221
                          1       3    3pz               2.521825      -0.317572
                                                         1.453920       0.534826
                                                         0.614053      -0.489458
                                                         0.232656       0.245631
                                                         0.074788       0.018221

                          1       4    4dx2              2.521825       3.008522
                                                         1.453920      -1.224251
                                                         0.614053       0.225691
                                                         0.232656       0.125144
                                                         0.074788      -0.015348
                          1       4    4dxy              2.521825       5.210912
                                                         1.453920      -2.120465
                                                         0.614053       0.390909
                                                         0.232656       0.216756
                                                         0.074788      -0.026584
                          1       4    4dxz              2.521825       5.210912
                                                         1.453920      -2.120465
                                                         0.614053       0.390909
                                                         0.232656       0.216756
                                                         0.074788      -0.026584
                          1       4    4dy2              2.521825       3.008522
                                                         1.453920      -1.224251
                                                         0.614053       0.225691
                                                         0.232656       0.125144
                                                         0.074788      -0.015348
                          1       4    4dyz              2.521825       5.210912
                                                         1.453920      -2.120465
                                                         0.614053       0.390909
                                                         0.232656       0.216756
                                                         0.074788      -0.026584
                          1       4    4dz2              2.521825       3.008522
                                                         1.453920      -1.224251
                                                         0.614053       0.225691
                                                         0.232656       0.125144
                                                         0.074788      -0.015348

                          1       5    5dx2              2.521825       0.698026
                                                         1.453920      -1.511486
                                                         0.614053      -0.335394
                                                         0.232656      -0.025564
                                                         0.074788      -0.002699
                          1       5    5dxy              2.521825       1.209017
                                                         1.453920      -2.617970
                                                         0.614053      -0.580920
                                                         0.232656      -0.044277
                                                         0.074788      -0.004674
                          1       5    5dxz              2.521825       1.209017
                                                         1.453920      -2.617970
                                                         0.614053      -0.580920
                                                         0.232656      -0.044277
                                                         0.074788      -0.004674
                          1       5    5dy2              2.521825       0.698026
                                                         1.453920      -1.511486
                                                         0.614053      -0.335394
                                                         0.232656      -0.025564
                                                         0.074788      -0.002699
                          1       5    5dyz              2.521825       1.209017
                                                         1.453920      -2.617970
                                                         0.614053      -0.580920
                                                         0.232656      -0.044277
                                                         0.074788      -0.004674
                          1       5    5dz2              2.521825       0.698026
                                                         1.453920      -1.511486
                                                         0.614053      -0.335394
                                                         0.232656      -0.025564
                                                         0.074788      -0.002699

                          1       6    6dx2              2.521825       0.831079
                                                         1.453920      -0.709226
                                                         0.614053      -0.137351
                                                         0.232656       0.068642
                                                         0.074788       0.011745
                          1       6    6dxy              2.521825       1.439472
                                                         1.453920      -1.228415
                                                         0.614053      -0.237899
                                                         0.232656       0.118891
                                                         0.074788       0.020343
                          1       6    6dxz              2.521825       1.439472
                                                         1.453920      -1.228415
                                                         0.614053      -0.237899
                                                         0.232656       0.118891
                                                         0.074788       0.020343
                          1       6    6dy2              2.521825       0.831079
                                                         1.453920      -0.709226
                                                         0.614053      -0.137351
                                                         0.232656       0.068642
                                                         0.074788       0.011745
                          1       6    6dyz              2.521825       1.439472
                                                         1.453920      -1.228415
                                                         0.614053      -0.237899
                                                         0.232656       0.118891
                                                         0.074788       0.020343
                          1       6    6dz2              2.521825       0.831079
                                                         1.453920      -0.709226
                                                         0.614053      -0.137351
                                                         0.232656       0.068642
                                                         0.074788       0.011745

     GTH Potential information for                                   GTH-PBE-q10

       Description:                       Goedecker-Teter-Hutter pseudopotential
                                           Goedecker et al., PRB 54, 1703 (1996)
                                          Hartwigsen et al., PRB 58, 3641 (1998)
                                                      Krack, TCA 114, 145 (2005)

       Gaussian exponent of the core charge distribution:               1.317676
       Electronic configuration (s p d ...):                           1   0   9

       Parameters of the local part of the GTH pseudopotential:

                          rloc        C1          C2          C3          C4
                        0.616000   11.313635

       Parameters of the non-local part of the GTH pseudopotential:

                   l      r(l)      h(i,j,l)

                   0    0.550904    4.733491   -1.784594
                                   -1.784594    2.303901
                   1    0.674138    2.534798   -1.778066
                                   -1.778066    2.103836
                   2    0.457392   -7.264011    2.558665
                                    2.558665   -2.901253

  2. Atomic kind: O                                     Number of atoms:     225

     Orbital Basis Set                                        DZVP-MOLOPT-SR-GTH

       Number of orbital shell sets:                                           1
       Number of orbital shells:                                               5
       Number of primitive Cartesian functions:                                5
       Number of Cartesian basis functions:                                   14
       Number of spherical basis functions:                                   13
       Norm type:                                                              2

       Normalised Cartesian orbitals:

                        Set   Shell   Orbital            Exponent    Coefficient

                          1       1    2s               10.389228       0.396646
                                                         3.849621       0.208811
                                                         1.388401      -0.301641
                                                         0.496955      -0.274061
                                                         0.162492      -0.033677

                          1       2    3s               10.389228       0.303673
                                                         3.849621       0.240943
                                                         1.388401      -0.313066
                                                         0.496955      -0.043055
                                                         0.162492       0.213991

                          1       3    3px              10.389228      -1.530415
                                                         3.849621      -1.371928
                                                         1.388401      -0.761951
                                                         0.496955      -0.253695
                                                         0.162492      -0.035541
                          1       3    3py              10.389228      -1.530415
                                                         3.849621      -1.371928
                                                         1.388401      -0.761951
                                                         0.496955      -0.253695
                                                         0.162492      -0.035541
                          1       3    3pz              10.389228      -1.530415
                                                         3.849621      -1.371928
                                                         1.388401      -0.761951
                                                         0.496955      -0.253695
                                                         0.162492      -0.035541

                          1       4    4px              10.389228      -0.565392
                                                         3.849621      -0.038231
                                                         1.388401      -0.382373
                                                         0.496955       0.179070
                                                         0.162492       0.122714
                          1       4    4py              10.389228      -0.565392
                                                         3.849621      -0.038231
                                                         1.388401      -0.382373
                                                         0.496955       0.179070
                                                         0.162492       0.122714
                          1       4    4pz              10.389228      -0.565392
                                                         3.849621      -0.038231
                                                         1.388401      -0.382373
                                                         0.496955       0.179070
                                                         0.162492       0.122714

                          1       5    4dx2             10.389228       1.867377
                                                         3.849621       0.670994
                                                         1.388401       1.353441
                                                         0.496955       0.273538
                                                         0.162492       0.006620
                          1       5    4dxy             10.389228       3.234392
                                                         3.849621       1.162195
                                                         1.388401       2.344229
                                                         0.496955       0.473781
                                                         0.162492       0.011466
                          1       5    4dxz             10.389228       3.234392
                                                         3.849621       1.162195
                                                         1.388401       2.344229
                                                         0.496955       0.473781
                                                         0.162492       0.011466
                          1       5    4dy2             10.389228       1.867377
                                                         3.849621       0.670994
                                                         1.388401       1.353441
                                                         0.496955       0.273538
                                                         0.162492       0.006620
                          1       5    4dyz             10.389228       3.234392
                                                         3.849621       1.162195
                                                         1.388401       2.344229
                                                         0.496955       0.473781
                                                         0.162492       0.011466
                          1       5    4dz2             10.389228       1.867377
                                                         3.849621       0.670994
                                                         1.388401       1.353441
                                                         0.496955       0.273538
                                                         0.162492       0.006620

     GTH Potential information for                                    GTH-PBE-q6

       Description:                       Goedecker-Teter-Hutter pseudopotential
                                           Goedecker et al., PRB 54, 1703 (1996)
                                          Hartwigsen et al., PRB 58, 3641 (1998)
                                                      Krack, TCA 114, 145 (2005)

       Gaussian exponent of the core charge distribution:               8.360253
       Electronic configuration (s p d ...):                               2   4

       Parameters of the local part of the GTH pseudopotential:

                          rloc        C1          C2          C3          C4
                        0.244554  -16.667215    2.487311

       Parameters of the non-local part of the GTH pseudopotential:

                   l      r(l)      h(i,j,l)

                   0    0.220956   18.337458
                   1    0.211332

  3. Atomic kind: H                                     Number of atoms:     450

     Orbital Basis Set                                        DZVP-MOLOPT-SR-GTH

       Number of orbital shell sets:                                           1
       Number of orbital shells:                                               3
       Number of primitive Cartesian functions:                                5
       Number of Cartesian basis functions:                                    5
       Number of spherical basis functions:                                    5
       Norm type:                                                              2

       Normalised Cartesian orbitals:

                        Set   Shell   Orbital            Exponent    Coefficient

                          1       1    2s               10.068468      -0.133023
                                                         2.680223      -0.177618
                                                         0.791502      -0.258419
                                                         0.239116      -0.107525
                                                         0.082193      -0.014019

                          1       2    3s               10.068468       0.344673
                                                         2.680223       1.819821
                                                         0.791502      -0.999069
                                                         0.239116       0.017430
                                                         0.082193       0.082660

                          1       3    3px              10.068468       0.155326
                                                         2.680223       0.367157
                                                         0.791502       0.311480
                                                         0.239116       0.080105
                                                         0.082193       0.033440
                          1       3    3py              10.068468       0.155326
                                                         2.680223       0.367157
                                                         0.791502       0.311480
                                                         0.239116       0.080105
                                                         0.082193       0.033440
                          1       3    3pz              10.068468       0.155326
                                                         2.680223       0.367157
                                                         0.791502       0.311480
                                                         0.239116       0.080105
                                                         0.082193       0.033440

     GTH Potential information for                                    GTH-PBE-q1

       Description:                       Goedecker-Teter-Hutter pseudopotential
                                           Goedecker et al., PRB 54, 1703 (1996)
                                          Hartwigsen et al., PRB 58, 3641 (1998)
                                                      Krack, TCA 114, 145 (2005)

       Gaussian exponent of the core charge distribution:              12.500000
       Electronic configuration (s p d ...):                                   1

       Parameters of the local part of the GTH pseudopotential:

                          rloc        C1          C2          C3          C4
                        0.200000   -4.178900    0.724463

  4. Atomic kind: K                                     Number of atoms:      10

     Orbital Basis Set                                        DZVP-MOLOPT-SR-GTH

       Number of orbital shell sets:                                           1
       Number of orbital shells:                                               6
       Number of primitive Cartesian functions:                                6
       Number of Cartesian basis functions:                                   15
       Number of spherical basis functions:                                   14
       Norm type:                                                              2

       Normalised Cartesian orbitals:

                        Set   Shell   Orbital            Exponent    Coefficient

                          1       1    2s                2.891270      -0.180768
                                                         2.714958      -0.456776
                                                         0.954063       0.362989
                                                         0.407596       0.212032
                                                         0.163340       0.022041
                                                         0.036854       0.007479

                          1       2    3s                2.891270       0.171987
                                                         2.714958       0.053001
                                                         0.954063      -0.143101
                                                         0.407596      -0.146103
                                                         0.163340      -0.005758
                                                         0.036854       0.065364

                          1       3    4s                2.891270       0.160063
                                                         2.714958      -0.075574
                                                         0.954063       0.273359
                                                         0.407596      -1.010132
                                                         0.163340       0.531781
                                                         0.036854      -0.045501

                          1       4    3px               2.891270       4.178447
                                                         2.714958      -3.954466
                                                         0.954063      -0.590690
                                                         0.407596      -0.212503
                                                         0.163340      -0.025451
                                                         0.036854      -0.000081
                          1       4    3py               2.891270       4.178447
                                                         2.714958      -3.954466
                                                         0.954063      -0.590690
                                                         0.407596      -0.212503
                                                         0.163340      -0.025451
                                                         0.036854      -0.000081
                          1       4    3pz               2.891270       4.178447
                                                         2.714958      -3.954466
                                                         0.954063      -0.590690
                                                         0.407596      -0.212503
                                                         0.163340      -0.025451
                                                         0.036854      -0.000081

                          1       5    4px               2.891270       1.159381
                                                         2.714958      -1.162890
                                                         0.954063      -0.129719
                                                         0.407596      -0.082991
                                                         0.163340       0.016967
                                                         0.036854       0.022207
                          1       5    4py               2.891270       1.159381
                                                         2.714958      -1.162890
                                                         0.954063      -0.129719
                                                         0.407596      -0.082991
                                                         0.163340       0.016967
                                                         0.036854       0.022207
                          1       5    4pz               2.891270       1.159381
                                                         2.714958      -1.162890
                                                         0.954063      -0.129719
                                                         0.407596      -0.082991
                                                         0.163340       0.016967
                                                         0.036854       0.022207

                          1       6    4dx2              2.891270      -0.221513
                                                         2.714958       1.024649
                                                         0.954063       0.338080
                                                         0.407596       0.076385
                                                         0.163340       0.029732
                                                         0.036854       0.002330
                          1       6    4dxy              2.891270      -0.383672
                                                         2.714958       1.774744
                                                         0.954063       0.585572
                                                         0.407596       0.132303
                                                         0.163340       0.051497
                                                         0.036854       0.004035
                          1       6    4dxz              2.891270      -0.383672
                                                         2.714958       1.774744
                                                         0.954063       0.585572
                                                         0.407596       0.132303
                                                         0.163340       0.051497
                                                         0.036854       0.004035
                          1       6    4dy2              2.891270      -0.221513
                                                         2.714958       1.024649
                                                         0.954063       0.338080
                                                         0.407596       0.076385
                                                         0.163340       0.029732
                                                         0.036854       0.002330
                          1       6    4dyz              2.891270      -0.383672
                                                         2.714958       1.774744
                                                         0.954063       0.585572
                                                         0.407596       0.132303
                                                         0.163340       0.051497
                                                         0.036854       0.004035
                          1       6    4dz2              2.891270      -0.221513
                                                         2.714958       1.024649
                                                         0.954063       0.338080
                                                         0.407596       0.076385
                                                         0.163340       0.029732
                                                         0.036854       0.002330

     GTH Potential information for                                    GTH-PBE-q9

       Description:                       Goedecker-Teter-Hutter pseudopotential
                                           Goedecker et al., PRB 54, 1703 (1996)
                                          Hartwigsen et al., PRB 58, 3641 (1998)
                                                      Krack, TCA 114, 145 (2005)

       Gaussian exponent of the core charge distribution:               3.125000
       Electronic configuration (s p d ...):                               3   6

       Parameters of the local part of the GTH pseudopotential:

                          rloc        C1          C2          C3          C4
                        0.400000   -3.363552   -1.086530

       Parameters of the non-local part of the GTH pseudopotential:

                   l      r(l)      h(i,j,l)

                   0    0.305318   17.850623   -5.622649
                                   -5.622649    7.258808
                   1    0.316484    7.333780   -2.460945
                                   -2.460945    2.911829

  5. Atomic kind: F                                     Number of atoms:      10

     Orbital Basis Set                                        DZVP-MOLOPT-SR-GTH

       Number of orbital shell sets:                                           1
       Number of orbital shells:                                               5
       Number of primitive Cartesian functions:                                5
       Number of Cartesian basis functions:                                   14
       Number of spherical basis functions:                                   13
       Norm type:                                                              2

       Normalised Cartesian orbitals:

                        Set   Shell   Orbital            Exponent    Coefficient

                          1       1    2s               13.701521       0.466640
                                                         5.098269       0.275181
                                                         1.837941      -0.385817
                                                         0.631759      -0.323188
                                                         0.202027      -0.041057

                          1       2    3s               13.701521       0.812914
                                                         5.098269       0.409868
                                                         1.837941      -0.484144
                                                         0.631759      -0.510807
                                                         0.202027       0.323394

                          1       3    3px              13.701521      -2.132362
                                                         5.098269      -1.951997
                                                         1.837941      -1.094976
                                                         0.631759      -0.344511
                                                         0.202027      -0.046836
                          1       3    3py              13.701521      -2.132362
                                                         5.098269      -1.951997
                                                         1.837941      -1.094976
                                                         0.631759      -0.344511
                                                         0.202027      -0.046836
                          1       3    3pz              13.701521      -2.132362
                                                         5.098269      -1.951997
                                                         1.837941      -1.094976
                                                         0.631759      -0.344511
                                                         0.202027      -0.046836

                          1       4    4px              13.701521      -2.306567
                                                         5.098269      -1.843421
                                                         1.837941      -1.245905
                                                         0.631759      -0.318382
                                                         0.202027       0.198065
                          1       4    4py              13.701521      -2.306567
                                                         5.098269      -1.843421
                                                         1.837941      -1.245905
                                                         0.631759      -0.318382
                                                         0.202027       0.198065
                          1       4    4pz              13.701521      -2.306567
                                                         5.098269      -1.843421
                                                         1.837941      -1.245905
                                                         0.631759      -0.318382
                                                         0.202027       0.198065

                          1       5    4dx2             13.701521       1.831894
                                                         5.098269       1.226066
                                                         1.837941       1.533195
                                                         0.631759       0.583867
                                                         0.202027      -0.008805
                          1       5    4dxy             13.701521       3.172934
                                                         5.098269       2.123609
                                                         1.837941       2.655572
                                                         0.631759       1.011287
                                                         0.202027      -0.015251
                          1       5    4dxz             13.701521       3.172934
                                                         5.098269       2.123609
                                                         1.837941       2.655572
                                                         0.631759       1.011287
                                                         0.202027      -0.015251
                          1       5    4dy2             13.701521       1.831894
                                                         5.098269       1.226066
                                                         1.837941       1.533195
                                                         0.631759       0.583867
                                                         0.202027      -0.008805
                          1       5    4dyz             13.701521       3.172934
                                                         5.098269       2.123609
                                                         1.837941       2.655572
                                                         0.631759       1.011287
                                                         0.202027      -0.015251
                          1       5    4dz2             13.701521       1.831894
                                                         5.098269       1.226066
                                                         1.837941       1.533195
                                                         0.631759       0.583867
                                                         0.202027      -0.008805

     GTH Potential information for                                    GTH-PBE-q7

       Description:                       Goedecker-Teter-Hutter pseudopotential
                                           Goedecker et al., PRB 54, 1703 (1996)
                                          Hartwigsen et al., PRB 58, 3641 (1998)
                                                      Krack, TCA 114, 145 (2005)

       Gaussian exponent of the core charge distribution:              10.823746
       Electronic configuration (s p d ...):                               2   5

       Parameters of the local part of the GTH pseudopotential:

                          rloc        C1          C2          C3          C4
                        0.214930  -21.573028    3.199776

       Parameters of the non-local part of the GTH pseudopotential:

                   l      r(l)      h(i,j,l)

                   0    0.194684   23.743540
                   1    0.186156


 MOLECULE KIND INFORMATION


 All atoms are their own molecule, skipping detailed information


 TOTAL NUMBERS AND MAXIMUM NUMBERS

  Total number of            - Atomic kinds:                                   5
                             - Atoms:                                        911
                             - Shell sets:                                   911
                             - Shells:                                      3881
                             - Primitive Cartesian functions:               4565
                             - Cartesian basis functions:                  10658
                             - Spherical basis functions:                   9765

  Maximum angular momentum of- Orbital basis functions:                        2
                             - Local part of the GTH pseudopotential:          2
                             - Non-local part of the GTH pseudopotential:      4


 MODULE QUICKSTEP:  ATOMIC COORDINATES IN angstrom

  Atom  Kind  Element       X           Y           Z          Z(eff)       Mass

       1     1 Pt  78    1.405730    0.811598   15.000000     10.00     195.0840
       2     1 Pt  78    4.217180    0.811598   15.000000     10.00     195.0840
       3     1 Pt  78    7.028640    0.811598   15.000000     10.00     195.0840
       4     1 Pt  78    9.840100    0.811598   15.000000     10.00     195.0840
       5     1 Pt  78   12.651600    0.811598   15.000000     10.00     195.0840
       6     1 Pt  78   15.463000    0.811598   15.000000     10.00     195.0840
       7     1 Pt  78    0.000000    3.246390   15.000000     10.00     195.0840
       8     1 Pt  78    2.811460    3.246390   15.000000     10.00     195.0840
       9     1 Pt  78    5.622910    3.246390   15.000000     10.00     195.0840
      10     1 Pt  78    8.434370    3.246390   15.000000     10.00     195.0840
      11     1 Pt  78   11.245800    3.246390   15.000000     10.00     195.0840
      12     1 Pt  78   14.057300    3.246390   15.000000     10.00     195.0840
      13     1 Pt  78    1.405730    5.681180   15.000000     10.00     195.0840
      14     1 Pt  78    4.217180    5.681180   15.000000     10.00     195.0840
      15     1 Pt  78    7.028640    5.681180   15.000000     10.00     195.0840
      16     1 Pt  78    9.840100    5.681180   15.000000     10.00     195.0840
      17     1 Pt  78   12.651600    5.681180   15.000000     10.00     195.0840
      18     1 Pt  78   15.463000    5.681180   15.000000     10.00     195.0840
      19     1 Pt  78    0.000000    8.115980   15.000000     10.00     195.0840
      20     1 Pt  78    2.811460    8.115980   15.000000     10.00     195.0840
      21     1 Pt  78    5.622910    8.115980   15.000000     10.00     195.0840
      22     1 Pt  78    8.434370    8.115980   15.000000     10.00     195.0840
      23     1 Pt  78   11.245800    8.115980   15.000000     10.00     195.0840
      24     1 Pt  78   14.057300    8.115980   15.000000     10.00     195.0840
      25     1 Pt  78    1.405730   10.550800   15.000000     10.00     195.0840
      26     1 Pt  78    4.217180   10.550800   15.000000     10.00     195.0840
      27     1 Pt  78    7.028640   10.550800   15.000000     10.00     195.0840
      28     1 Pt  78    9.840100   10.550800   15.000000     10.00     195.0840
      29     1 Pt  78   12.651600   10.550800   15.000000     10.00     195.0840
      30     1 Pt  78   15.463000   10.550800   15.000000     10.00     195.0840
      31     1 Pt  78    0.000000   12.985600   15.000000     10.00     195.0840
      32     1 Pt  78    2.811460   12.985600   15.000000     10.00     195.0840
      33     1 Pt  78    5.622910   12.985600   15.000000     10.00     195.0840
      34     1 Pt  78    8.434370   12.985600   15.000000     10.00     195.0840
      35     1 Pt  78   11.245800   12.985600   15.000000     10.00     195.0840
      36     1 Pt  78   14.057300   12.985600   15.000000     10.00     195.0840
      37     1 Pt  78    0.000000    1.623190   17.295500     10.00     195.0840
      38     1 Pt  78    2.811460    1.623190   17.295500     10.00     195.0840
      39     1 Pt  78    5.622910    1.623190   17.295500     10.00     195.0840
      40     1 Pt  78    8.434370    1.623190   17.295500     10.00     195.0840
      41     1 Pt  78   11.245800    1.623190   17.295500     10.00     195.0840
      42     1 Pt  78   14.057300    1.623190   17.295500     10.00     195.0840
      43     1 Pt  78    1.405730    4.057990   17.295500     10.00     195.0840
      44     1 Pt  78    4.217180    4.057990   17.295500     10.00     195.0840
      45     1 Pt  78    7.028640    4.057990   17.295500     10.00     195.0840
      46     1 Pt  78    9.840100    4.057990   17.295500     10.00     195.0840
      47     1 Pt  78   12.651600    4.057990   17.295500     10.00     195.0840
      48     1 Pt  78   15.463000    4.057990   17.295500     10.00     195.0840
      49     1 Pt  78    0.000000    6.492780   17.295500     10.00     195.0840
      50     1 Pt  78    2.811460    6.492780   17.295500     10.00     195.0840
      51     1 Pt  78    5.622910    6.492780   17.295500     10.00     195.0840
      52     1 Pt  78    8.434370    6.492780   17.295500     10.00     195.0840
      53     1 Pt  78   11.245800    6.492780   17.295500     10.00     195.0840
      54     1 Pt  78   14.057300    6.492780   17.295500     10.00     195.0840
      55     1 Pt  78    1.405730    8.927570   17.295500     10.00     195.0840
      56     1 Pt  78    4.217180    8.927570   17.295500     10.00     195.0840
      57     1 Pt  78    7.028640    8.927570   17.295500     10.00     195.0840
      58     1 Pt  78    9.840100    8.927570   17.295500     10.00     195.0840
      59     1 Pt  78   12.651600    8.927570   17.295500     10.00     195.0840
      60     1 Pt  78   15.463000    8.927570   17.295500     10.00     195.0840
      61     1 Pt  78    0.000000   11.362400   17.295500     10.00     195.0840
      62     1 Pt  78    2.811460   11.362400   17.295500     10.00     195.0840
      63     1 Pt  78    5.622910   11.362400   17.295500     10.00     195.0840
      64     1 Pt  78    8.434370   11.362400   17.295500     10.00     195.0840
      65     1 Pt  78   11.245800   11.362400   17.295500     10.00     195.0840
      66     1 Pt  78   14.057300   11.362400   17.295500     10.00     195.0840
      67     1 Pt  78    1.405730   13.797200   17.295500     10.00     195.0840
      68     1 Pt  78    4.217180   13.797200   17.295500     10.00     195.0840
      69     1 Pt  78    7.028640   13.797200   17.295500     10.00     195.0840
      70     1 Pt  78    9.840100   13.797200   17.295500     10.00     195.0840
      71     1 Pt  78   12.651600   13.797200   17.295500     10.00     195.0840
      72     1 Pt  78   15.463000   13.797200   17.295500     10.00     195.0840
      73     1 Pt  78    0.000000    0.000000   19.591100     10.00     195.0840
      74     1 Pt  78    2.811460    0.000000   19.591100     10.00     195.0840
      75     1 Pt  78    5.622910    0.000000   19.591100     10.00     195.0840
      76     1 Pt  78    8.434370    0.000000   19.591100     10.00     195.0840
      77     1 Pt  78   11.245800    0.000000   19.591100     10.00     195.0840
      78     1 Pt  78   14.057300    0.000000   19.591100     10.00     195.0840
      79     1 Pt  78    1.405730    2.434790   19.591100     10.00     195.0840
      80     1 Pt  78    4.217180    2.434790   19.591100     10.00     195.0840
      81     1 Pt  78    7.028640    2.434790   19.591100     10.00     195.0840
      82     1 Pt  78    9.840100    2.434790   19.591100     10.00     195.0840
      83     1 Pt  78   12.651600    2.434790   19.591100     10.00     195.0840
      84     1 Pt  78   15.463000    2.434790   19.591100     10.00     195.0840
      85     1 Pt  78    0.000000    4.869590   19.591100     10.00     195.0840
      86     1 Pt  78    2.811460    4.869590   19.591100     10.00     195.0840
      87     1 Pt  78    5.622910    4.869590   19.591100     10.00     195.0840
      88     1 Pt  78    8.434370    4.869590   19.591100     10.00     195.0840
      89     1 Pt  78   11.245800    4.869590   19.591100     10.00     195.0840
      90     1 Pt  78   14.057300    4.869590   19.591100     10.00     195.0840
      91     1 Pt  78    1.405730    7.304380   19.591100     10.00     195.0840
      92     1 Pt  78    4.217180    7.304380   19.591100     10.00     195.0840
      93     1 Pt  78    7.028640    7.304380   19.591100     10.00     195.0840
      94     1 Pt  78    9.840100    7.304380   19.591100     10.00     195.0840
      95     1 Pt  78   12.651600    7.304380   19.591100     10.00     195.0840
      96     1 Pt  78   15.463000    7.304380   19.591100     10.00     195.0840
      97     1 Pt  78    0.000000    9.739170   19.591100     10.00     195.0840
      98     1 Pt  78    2.811460    9.739170   19.591100     10.00     195.0840
      99     1 Pt  78    5.622910    9.739170   19.591100     10.00     195.0840
     100     1 Pt  78    8.434370    9.739170   19.591100     10.00     195.0840
     101     1 Pt  78   11.245800    9.739170   19.591100     10.00     195.0840
     102     1 Pt  78   14.057300    9.739170   19.591100     10.00     195.0840
     103     1 Pt  78    1.405730   12.174000   19.591100     10.00     195.0840
     104     1 Pt  78    4.217180   12.174000   19.591100     10.00     195.0840
     105     1 Pt  78    7.028640   12.174000   19.591100     10.00     195.0840
     106     1 Pt  78    9.840100   12.174000   19.591100     10.00     195.0840
     107     1 Pt  78   12.651600   12.174000   19.591100     10.00     195.0840
     108     1 Pt  78   15.463000   12.174000   19.591100     10.00     195.0840
     109     1 Pt  78    1.405730    0.811598   21.886600     10.00     195.0840
     110     1 Pt  78    4.217180    0.811598   21.886600     10.00     195.0840
     111     1 Pt  78    7.028640    0.811598   21.886600     10.00     195.0840
     112     1 Pt  78    9.840100    0.811598   21.886600     10.00     195.0840
     113     1 Pt  78   12.651600    0.811598   21.886600     10.00     195.0840
     114     1 Pt  78   15.463000    0.811598   21.886600     10.00     195.0840
     115     1 Pt  78    0.000000    3.246390   21.886600     10.00     195.0840
     116     1 Pt  78    2.811460    3.246390   21.886600     10.00     195.0840
     117     1 Pt  78    5.622910    3.246390   21.886600     10.00     195.0840
     118     1 Pt  78    8.434370    3.246390   21.886600     10.00     195.0840
     119     1 Pt  78   11.245800    3.246390   21.886600     10.00     195.0840
     120     1 Pt  78   14.057300    3.246390   21.886600     10.00     195.0840
     121     1 Pt  78    1.405730    5.681180   21.886600     10.00     195.0840
     122     1 Pt  78    4.217180    5.681180   21.886600     10.00     195.0840
     123     1 Pt  78    7.028640    5.681180   21.886600     10.00     195.0840
     124     1 Pt  78    9.840100    5.681180   21.886600     10.00     195.0840
     125     1 Pt  78   12.651600    5.681180   21.886600     10.00     195.0840
     126     1 Pt  78   15.463000    5.681180   21.886600     10.00     195.0840
     127     1 Pt  78    0.000000    8.115980   21.886600     10.00     195.0840
     128     1 Pt  78    2.811460    8.115980   21.886600     10.00     195.0840
     129     1 Pt  78    5.622910    8.115980   21.886600     10.00     195.0840
     130     1 Pt  78    8.434370    8.115980   21.886600     10.00     195.0840
     131     1 Pt  78   11.245800    8.115980   21.886600     10.00     195.0840
     132     1 Pt  78   14.057300    8.115980   21.886600     10.00     195.0840
     133     1 Pt  78    1.405730   10.550800   21.886600     10.00     195.0840
     134     1 Pt  78    4.217180   10.550800   21.886600     10.00     195.0840
     135     1 Pt  78    7.028640   10.550800   21.886600     10.00     195.0840
     136     1 Pt  78    9.840100   10.550800   21.886600     10.00     195.0840
     137     1 Pt  78   12.651600   10.550800   21.886600     10.00     195.0840
     138     1 Pt  78   15.463000   10.550800   21.886600     10.00     195.0840
     139     1 Pt  78    0.000000   12.985600   21.886600     10.00     195.0840
     140     1 Pt  78    2.811460   12.985600   21.886600     10.00     195.0840
     141     1 Pt  78    5.622910   12.985600   21.886600     10.00     195.0840
     142     1 Pt  78    8.434370   12.985600   21.886600     10.00     195.0840
     143     1 Pt  78   11.245800   12.985600   21.886600     10.00     195.0840
     144     1 Pt  78   14.057300   12.985600   21.886600     10.00     195.0840
     145     1 Pt  78    0.000000    1.623190   24.182200     10.00     195.0840
     146     1 Pt  78    2.811460    1.623190   24.182200     10.00     195.0840
     147     1 Pt  78    5.622910    1.623190   24.182200     10.00     195.0840
     148     1 Pt  78    8.434370    1.623190   24.182200     10.00     195.0840
     149     1 Pt  78   11.245800    1.623190   24.182200     10.00     195.0840
     150     1 Pt  78   14.057300    1.623190   24.182200     10.00     195.0840
     151     1 Pt  78    1.405730    4.057990   24.182200     10.00     195.0840
     152     1 Pt  78    4.217180    4.057990   24.182200     10.00     195.0840
     153     1 Pt  78    7.028640    4.057990   24.182200     10.00     195.0840
     154     1 Pt  78    9.840100    4.057990   24.182200     10.00     195.0840
     155     1 Pt  78   12.651600    4.057990   24.182200     10.00     195.0840
     156     1 Pt  78   15.463000    4.057990   24.182200     10.00     195.0840
     157     1 Pt  78    0.000000    6.492780   24.182200     10.00     195.0840
     158     1 Pt  78    2.811460    6.492780   24.182200     10.00     195.0840
     159     1 Pt  78    5.622910    6.492780   24.182200     10.00     195.0840
     160     1 Pt  78    8.434370    6.492780   24.182200     10.00     195.0840
     161     1 Pt  78   11.245800    6.492780   24.182200     10.00     195.0840
     162     1 Pt  78   14.057300    6.492780   24.182200     10.00     195.0840
     163     1 Pt  78    1.405730    8.927570   24.182200     10.00     195.0840
     164     1 Pt  78    4.217180    8.927570   24.182200     10.00     195.0840
     165     1 Pt  78    7.028640    8.927570   24.182200     10.00     195.0840
     166     1 Pt  78    9.840100    8.927570   24.182200     10.00     195.0840
     167     1 Pt  78   12.651600    8.927570   24.182200     10.00     195.0840
     168     1 Pt  78   15.463000    8.927570   24.182200     10.00     195.0840
     169     1 Pt  78    0.000000   11.362400   24.182200     10.00     195.0840
     170     1 Pt  78    2.811460   11.362400   24.182200     10.00     195.0840
     171     1 Pt  78    5.622910   11.362400   24.182200     10.00     195.0840
     172     1 Pt  78    8.434370   11.362400   24.182200     10.00     195.0840
     173     1 Pt  78   11.245800   11.362400   24.182200     10.00     195.0840
     174     1 Pt  78   14.057300   11.362400   24.182200     10.00     195.0840
     175     1 Pt  78    1.405730   13.797200   24.182200     10.00     195.0840
     176     1 Pt  78    4.217180   13.797200   24.182200     10.00     195.0840
     177     1 Pt  78    7.028640   13.797200   24.182200     10.00     195.0840
     178     1 Pt  78    9.840100   13.797200   24.182200     10.00     195.0840
     179     1 Pt  78   12.651600   13.797200   24.182200     10.00     195.0840
     180     1 Pt  78   15.463000   13.797200   24.182200     10.00     195.0840
     181     1 Pt  78    0.000000    0.000000   26.477700     10.00     195.0840
     182     1 Pt  78    2.811460    0.000000   26.477700     10.00     195.0840
     183     1 Pt  78    5.622910    0.000000   26.477700     10.00     195.0840
     184     1 Pt  78    8.434370    0.000000   26.477700     10.00     195.0840
     185     1 Pt  78   11.245800    0.000000   26.477700     10.00     195.0840
     186     1 Pt  78   14.057300    0.000000   26.477700     10.00     195.0840
     187     1 Pt  78    1.405730    2.434790   26.477700     10.00     195.0840
     188     1 Pt  78    4.217180    2.434790   26.477700     10.00     195.0840
     189     1 Pt  78    7.028640    2.434790   26.477700     10.00     195.0840
     190     1 Pt  78    9.840100    2.434790   26.477700     10.00     195.0840
     191     1 Pt  78   12.651600    2.434790   26.477700     10.00     195.0840
     192     1 Pt  78   15.463000    2.434790   26.477700     10.00     195.0840
     193     1 Pt  78    0.000000    4.869590   26.477700     10.00     195.0840
     194     1 Pt  78    2.811460    4.869590   26.477700     10.00     195.0840
     195     1 Pt  78    5.622910    4.869590   26.477700     10.00     195.0840
     196     1 Pt  78    8.434370    4.869590   26.477700     10.00     195.0840
     197     1 Pt  78   11.245800    4.869590   26.477700     10.00     195.0840
     198     1 Pt  78   14.057300    4.869590   26.477700     10.00     195.0840
     199     1 Pt  78    1.405730    7.304380   26.477700     10.00     195.0840
     200     1 Pt  78    4.217180    7.304380   26.477700     10.00     195.0840
     201     1 Pt  78    7.028640    7.304380   26.477700     10.00     195.0840
     202     1 Pt  78    9.840100    7.304380   26.477700     10.00     195.0840
     203     1 Pt  78   12.651600    7.304380   26.477700     10.00     195.0840
     204     1 Pt  78   15.463000    7.304380   26.477700     10.00     195.0840
     205     1 Pt  78    0.000000    9.739170   26.477700     10.00     195.0840
     206     1 Pt  78    2.811460    9.739170   26.477700     10.00     195.0840
     207     1 Pt  78    5.622910    9.739170   26.477700     10.00     195.0840
     208     1 Pt  78    8.434370    9.739170   26.477700     10.00     195.0840
     209     1 Pt  78   11.245800    9.739170   26.477700     10.00     195.0840
     210     1 Pt  78   14.057300    9.739170   26.477700     10.00     195.0840
     211     1 Pt  78    1.405730   12.174000   26.477700     10.00     195.0840
     212     1 Pt  78    4.217180   12.174000   26.477700     10.00     195.0840
     213     1 Pt  78    7.028640   12.174000   26.477700     10.00     195.0840
     214     1 Pt  78    9.840100   12.174000   26.477700     10.00     195.0840
     215     1 Pt  78   12.651600   12.174000   26.477700     10.00     195.0840
     216     1 Pt  78   15.463000   12.174000   26.477700     10.00     195.0840
     217     2 O    8   -1.166480   15.369500   49.771200      6.00      15.9994
     218     3 H    1   -0.397140   15.666000   49.285000      1.00       1.0079
     219     3 H    1   -1.080120   15.780800   50.631200      1.00       1.0079
     220     2 O    8   12.573900    8.301100   29.655600      6.00      15.9994
     221     3 H    1   12.769500    7.364120   29.661000      1.00       1.0079
     222     3 H    1   11.636800    8.351720   29.844000      1.00       1.0079
     223     2 O    8    5.583710    8.859330   34.196200      6.00      15.9994
     224     3 H    1    6.267050    9.127420   33.581800      1.00       1.0079
     225     3 H    1    4.772540    8.911870   33.690700      1.00       1.0079
     226     2 O    8   12.468500   12.260100   53.106600      6.00      15.9994
     227     3 H    1   13.052000   12.958500   53.403400      1.00       1.0079
     228     3 H    1   12.407700   12.384500   52.159500      1.00       1.0079
     229     2 O    8   16.849600   17.290500   41.772600      6.00      15.9994
     230     3 H    1   16.094300   16.845300   42.156700      1.00       1.0079
     231     3 H    1   16.472400   17.894900   41.133400      1.00       1.0079
     232     2 O    8   23.402800   10.994800   47.127900      6.00      15.9994
     233     3 H    1   23.194400   11.872200   46.807200      1.00       1.0079
     234     3 H    1   23.644200   10.503400   46.342700      1.00       1.0079
     235     2 O    8   19.118400    8.166670   43.766400      6.00      15.9994
     236     3 H    1   19.331600    8.858910   43.140600      1.00       1.0079
     237     3 H    1   18.958500    7.394080   43.224300      1.00       1.0079
     238     2 O    8   10.629900    7.928560   39.884000      6.00      15.9994
     239     3 H    1   10.193700    7.241420   40.387700      1.00       1.0079
     240     3 H    1   10.687300    7.575580   38.996100      1.00       1.0079
     241     2 O    8   -4.874860    0.642013   30.530300      6.00      15.9994
     242     3 H    1   -5.665090    0.161679   30.283300      1.00       1.0079
     243     3 H    1   -5.137190    1.562340   30.509900      1.00       1.0079
     244     2 O    8   13.821900    3.731040   37.397200      6.00      15.9994
     245     3 H    1   13.255600    2.971620   37.534300      1.00       1.0079
     246     3 H    1   14.659000    3.359120   37.119500      1.00       1.0079
     247     2 O    8   14.177600   13.548200   29.979700      6.00      15.9994
     248     3 H    1   13.746400   12.735500   29.715300      1.00       1.0079
     249     3 H    1   13.463900   14.179100   30.073300      1.00       1.0079
     250     2 O    8    9.667750   -0.726914   29.867800      6.00      15.9994
     251     3 H    1    9.882830   -1.658330   29.818400      1.00       1.0079
     252     3 H    1    8.711800   -0.698892   29.827600      1.00       1.0079
     253     2 O    8   13.029900   11.229200   29.790700      6.00      15.9994
     254     3 H    1   13.243000   10.296800   29.829900      1.00       1.0079
     255     3 H    1   12.152800   11.259000   29.408600      1.00       1.0079
     256     2 O    8   12.610700    9.389640   42.726100      6.00      15.9994
     257     3 H    1   11.777300    9.403130   43.196600      1.00       1.0079
     258     3 H    1   12.862100    8.466190   42.709600      1.00       1.0079
     259     2 O    8   19.823100   13.214800   40.856900      6.00      15.9994
     260     3 H    1   20.474000   12.956500   40.204400      1.00       1.0079
     261     3 H    1   19.013600   13.324300   40.358000      1.00       1.0079
     262     2 O    8    8.073900   11.546400   50.551900      6.00      15.9994
     263     3 H    1    7.566720   12.029700   49.899600      1.00       1.0079
     264     3 H    1    7.525230   11.553700   51.336200      1.00       1.0079
     265     2 O    8    1.409320    6.299980   30.091300      6.00      15.9994
     266     3 H    1    1.493790    5.416480   29.732800      1.00       1.0079
     267     3 H    1    0.515778    6.563710   29.871600      1.00       1.0079
     268     2 O    8    4.367170    7.380860   30.147600      6.00      15.9994
     269     3 H    1    3.705190    7.256300   29.467500      1.00       1.0079
     270     3 H    1    4.627090    6.493440   30.394900      1.00       1.0079
     271     2 O    8   13.574000   12.333100   47.064700      6.00      15.9994
     272     3 H    1   14.296600   12.534100   47.659400      1.00       1.0079
     273     3 H    1   13.923300   11.659200   46.481600      1.00       1.0079
     274     2 O    8   10.029900    2.815980   53.275200      6.00      15.9994
     275     3 H    1    9.458720    3.549550   53.047600      1.00       1.0079
     276     3 H    1   10.663000    3.186610   53.890200      1.00       1.0079
     277     2 O    8   17.246200   15.238900   34.763000      6.00      15.9994
     278     3 H    1   17.712800   15.103600   35.587800      1.00       1.0079
     279     3 H    1   17.552300   14.531600   34.195300      1.00       1.0079
     280     2 O    8    2.053760   14.166800   48.390300      6.00      15.9994
     281     3 H    1    2.809490   14.611000   48.005900      1.00       1.0079
     282     3 H    1    1.320780   14.405700   47.823000      1.00       1.0079
     283     2 O    8   11.387700    9.044000   52.968900      6.00      15.9994
     284     3 H    1   12.151500    8.536990   52.693800      1.00       1.0079
     285     3 H    1   10.929700    8.472680   53.585400      1.00       1.0079
     286     2 O    8   -2.342150    1.538310   42.665400      6.00      15.9994
     287     3 H    1   -2.736160    0.882121   42.090500      1.00       1.0079
     288     3 H    1   -2.710740    2.370160   42.368000      1.00       1.0079
     289     2 O    8   -2.432120    5.126710   31.980000      6.00      15.9994
     290     3 H    1   -1.740550    5.749490   32.203800      1.00       1.0079
     291     3 H    1   -2.320270    4.970770   31.042200      1.00       1.0079
     292     2 O    8    5.591540    9.083610   36.898800      6.00      15.9994
     293     3 H    1    5.388760    9.070740   35.963400      1.00       1.0079
     294     3 H    1    4.739900    9.012710   37.330000      1.00       1.0079
     295     2 O    8    1.312380   -1.344750   53.028400      6.00      15.9994
     296     3 H    1    0.893264   -0.490777   53.134700      1.00       1.0079
     297     3 H    1    0.612378   -1.918530   52.716900      1.00       1.0079
     298     2 O    8    9.150250   13.819700   52.925000      6.00      15.9994
     299     3 H    1    9.850080   14.409300   53.205600      1.00       1.0079
     300     3 H    1    9.051170   13.993200   51.988900      1.00       1.0079
     301     2 O    8    7.777920   15.698400   40.849000      6.00      15.9994
     302     3 H    1    6.884550   16.041900   40.836500      1.00       1.0079
     303     3 H    1    7.721760   14.866400   40.379100      1.00       1.0079
     304     2 O    8   14.766300    6.470130   46.311000      6.00      15.9994
     305     3 H    1   15.276200    5.983150   45.663600      1.00       1.0079
     306     3 H    1   15.251400    7.286100   46.434100      1.00       1.0079
     307     2 O    8    8.340070    6.051550   40.653100      6.00      15.9994
     308     3 H    1    8.278620    6.020800   39.698400      1.00       1.0079
     309     3 H    1    8.490470    5.142750   40.913300      1.00       1.0079
     310     2 O    8    3.556280    1.497380   50.628000      6.00      15.9994
     311     3 H    1    3.962820    1.331700   49.777400      1.00       1.0079
     312     3 H    1    4.293170    1.626930   51.225000      1.00       1.0079
     313     2 O    8   14.078800    2.592390   39.957900      6.00      15.9994
     314     3 H    1   14.697900    2.964950   39.330100      1.00       1.0079
[...]
    820      2      O           0.00648806     0.01505308    -0.01897304
    821      3      H           0.01036372    -0.01436975     0.00988780
    822      3      H          -0.01609230    -0.00028348     0.00841177
    823      2      O          -0.01526194     0.01131843     0.01609696
    824      3      H           0.02059396    -0.01042881     0.00649556
    825      3      H          -0.00304482    -0.00186308    -0.02039333
    826      2      O          -0.02010932    -0.01891633     0.01273776
    827      3      H           0.01147905    -0.00656232    -0.02632407
    828      3      H           0.01293188     0.02991947     0.00623839
    829      2      O          -0.01769118     0.01867016     0.00628539
    830      3      H           0.01974344     0.00558498    -0.01039573
    831      3      H           0.00566962    -0.02262710    -0.00108137
    832      2      O           0.01626773     0.01063605     0.01796937
    833      3      H          -0.01392708    -0.01359772    -0.00020149
    834      3      H           0.00057167     0.00385791    -0.01212469
    835      2      O          -0.02380597     0.00815523     0.01225636
    836      3      H           0.01449545    -0.00628703     0.01206708
    837      3      H           0.00518297    -0.01147811    -0.01805166
    838      2      O           0.00909982    -0.02265685    -0.00764736
    839      3      H          -0.01458546     0.00008778     0.00959533
    840      3      H           0.00531071     0.01904009     0.00136189
    841      2      O           0.00471017     0.01271242    -0.02828822
    842      3      H          -0.00071722    -0.01793260     0.00394889
    843      3      H          -0.00023861     0.00356290     0.02384128
    844      2      O           0.01055635     0.01849193     0.01822941
    845      3      H           0.01665392    -0.00576723    -0.00421776
    846      3      H          -0.02238635    -0.02270104    -0.01578290
    847      2      O          -0.00208070     0.00520490    -0.00818755
    848      3      H           0.01105275     0.00674755     0.01725072
    849      3      H          -0.00080582    -0.01565715    -0.00955589
    850      2      O          -0.00146366     0.01062211    -0.01028599
    851      3      H           0.00561024     0.00688275     0.01532096
    852      3      H          -0.00149190    -0.01935869     0.00031986
    853      2      O          -0.02022603    -0.01014768    -0.01884243
    854      3      H          -0.00402212     0.01256963     0.01936192
    855      3      H           0.01490341     0.00629911     0.00549985
    856      2      O          -0.01769243     0.00138690    -0.03855229
    857      3      H          -0.01586376     0.00621895     0.01630803
    858      3      H           0.02547795    -0.01527223     0.02024057
    859      2      O          -0.00428489    -0.01665582    -0.01641062
    860      3      H          -0.00152462     0.00611555     0.02148802
    861      3      H           0.00372754     0.01343764    -0.00778592
    862      2      O           0.02866177     0.00282903    -0.00665096
    863      3      H          -0.01732694    -0.01289294     0.01968359
    864      3      H          -0.00811594     0.00392977    -0.00817300
    865      2      O           0.02665292    -0.02994507    -0.00215072
    866      3      H          -0.01980988    -0.00014294     0.00997337
    867      3      H           0.00034476     0.02412531    -0.00172281
    868      2      O           0.01109093     0.01756889    -0.00210114
    869      3      H           0.00565590    -0.01928474     0.00662008
    870      3      H          -0.02345500     0.00229499     0.00147246
    871      2      O          -0.01137251    -0.01601061    -0.00841630
    872      3      H          -0.00429857     0.03101735     0.00932987
    873      3      H           0.02001864    -0.00682462     0.00627506
    874      2      O          -0.02985049     0.00973927    -0.00779970
    875      3      H           0.01284452     0.01935929     0.00398894
    876      3      H           0.01862046    -0.01236297    -0.00350332
    877      2      O           0.01881502     0.01514177     0.02360566
    878      3      H          -0.01181558    -0.00870320     0.00435382
    879      3      H          -0.01295675    -0.00985152    -0.03151995
    880      2      O           0.02139310    -0.01129024     0.01423491
    881      3      H          -0.00137992     0.01868975    -0.01567256
    882      3      H          -0.01645822    -0.00317050    -0.00352942
    883      2      O           0.00393223     0.00098832    -0.01865137
    884      3      H          -0.01525240     0.00244282     0.00342259
    885      3      H           0.01478686    -0.01088937     0.01259984
    886      2      O           0.00750678     0.00052870     0.01855158
    887      3      H           0.00335431    -0.00767771    -0.01631553
    888      3      H          -0.01316012     0.00395947     0.00341939
    889      2      O          -0.01215607    -0.02274575     0.00329968
    890      3      H           0.00699845     0.01971121     0.00678411
    891      3      H           0.00299452     0.00503381    -0.01765511
    892      4      K          -0.00469463     0.00580517     0.00127934
    893      4      K          -0.00828147     0.00359179    -0.00022341
    894      4      K           0.00040955    -0.01755068    -0.00875448
    895      4      K           0.00689756    -0.01451198     0.00501386
    896      4      K           0.00248130    -0.00510676     0.00030610
    897      4      K          -0.00319246    -0.00024089     0.00152762
    898      4      K           0.00550969    -0.00879766     0.00222671
    899      4      K          -0.00756038     0.00677037     0.00114193
    900      4      K          -0.00020249     0.00319026     0.00281313
    901      4      K           0.00908200     0.00001762    -0.00396205
    902      5      F           0.00355723     0.01133554     0.00186012
    903      5      F          -0.01150896    -0.00445599    -0.00686681
    904      5      F          -0.00598926    -0.01154438     0.00510318
    905      5      F           0.00377500     0.00315606     0.00081776
    906      5      F          -0.00646995     0.00897171     0.00381122
    907      5      F          -0.00564081     0.00188827     0.00288914
    908      5      F          -0.00225007     0.00799385     0.00236602
    909      5      F          -0.00002564     0.00081290     0.00021647
    910      5      F           0.00236059    -0.00205897    -0.00119805
    911      5      F           0.00980925     0.00283947    -0.01234444
 SUM OF ATOMIC FORCES           0.00629057    -0.00737069    -0.00102816     0.00974451

 -------------------------------------------------------------------------------
 -                                                                             -
 -                                DBCSR STATISTICS                             -
 -                                                                             -
 -------------------------------------------------------------------------------
 COUNTER                                    TOTAL       BLAS       SMM       ACC
 flops     5 x    31 x     5           1347235200       0.0%    100.0%      0.0%
 flops    20 x    31 x    13           1548100320       0.0%    100.0%      0.0%
 flops    13 x    31 x    20           1548100320       0.0%    100.0%      0.0%
 flops    13 x    31 x     5           1581807240       0.0%    100.0%      0.0%
 flops     5 x    31 x    13           1581807240       0.0%    100.0%      0.0%
 flops    20 x    31 x     5           1655958000       0.0%    100.0%      0.0%
 flops     5 x    31 x    20           1655958000       0.0%    100.0%      0.0%
 flops    13 x    31 x    13           1712587188       0.0%    100.0%      0.0%
 flops    20 x    31 x    20           6942412800       0.0%    100.0%      0.0%
 flops     5 x    32 x     5         101984256000       0.0%    100.0%      0.0%
 flops    13 x    32 x    20         117189529600       0.0%    100.0%      0.0%
 flops    20 x    32 x    13         117189529600       0.0%    100.0%      0.0%
 flops    13 x    32 x     5         119741107200       0.0%    100.0%      0.0%
 flops     5 x    32 x    13         119741107200       0.0%    100.0%      0.0%
 flops     5 x    32 x    20         125354240000       0.0%    100.0%      0.0%
 flops    20 x    32 x     5         125354240000       0.0%    100.0%      0.0%
 flops    13 x    32 x    13         129641008640       0.0%    100.0%      0.0%
 flops     5 x     5 x   320         176701824000       0.0%    100.0%      0.0%
 flops    13 x    20 x   320         201785958400       0.0%    100.0%      0.0%
 flops    20 x    13 x   320         203050598400       0.0%    100.0%      0.0%
 flops    13 x     5 x   320         206825548800       0.0%    100.0%      0.0%
 flops     5 x    13 x   320         206825548800       0.0%    100.0%      0.0%
 flops    20 x     5 x   320         216360448000       0.0%    100.0%      0.0%
 flops     5 x    20 x   320         216681472000       0.0%    100.0%      0.0%
 flops    13 x    13 x   320         225857116160       0.0%    100.0%      0.0%
 flops    20 x    32 x    20         525533184000       0.0%    100.0%      0.0%
 flops    20 x    20 x   320         911941632000       0.0%    100.0%      0.0%
 flops inhomo. stacks                468670566400     100.0%      0.0%      0.0%
 flops total                         4.536003E+12      10.3%     89.7%      0.0%
 flops max/rank                     79.182431E+09      16.3%     83.7%      0.0%
 matmuls inhomo. stacks                   7921588     100.0%      0.0%      0.0%
 matmuls total                          253663622       3.1%     96.9%      0.0%
 number of processed stacks                356690       5.3%     94.7%      0.0%
 average stack size                                   418.7     727.5       0.0
 marketing flops                    10.416988E+12
 -------------------------------------------------------------------------------
 # multiplications                             26
 max memory usage/rank             947.744768E+06
 # max total images/rank                        1
 # max 3D layers                                1
 # MPI messages exchanged                   23296
 MPI messages size (bytes):
  total size                        82.472174E+09
  min size                           2.184448E+06
  max size                           7.034208E+06
  average size                       3.540186E+06
 MPI breakdown and total messages size (bytes):
             size <=      128                   0                        0
       128 < size <=     8192                   0                        0
      8192 < size <=    32768                   0                        0
     32768 < size <=   131072                   0                        0
    131072 < size <=  4194304               20160              60997814640
   4194304 < size <= 16777216                3136              21474368776
  16777216 < size                               0                        0
 -------------------------------------------------------------------------------
 -                                                                             -
 -                      DBCSR MESSAGE PASSING PERFORMANCE                      -
 -                                                                             -
 -------------------------------------------------------------------------------
 ROUTINE             CALLS      AVE VOLUME [Bytes]
 MP_Group               26
 MP_Bcast               28                     12.
 MP_Allreduce          225                     13.
 MP_Alltoall           667                1797655.
 MP_Wait              2080
 MP_ISend              832                1562674.
 MP_IRecv              832                1562887.
 MP_Memory            1762
 -------------------------------------------------------------------------------

 MEMORY| Estimated peak process memory [MiB]                                1518

 -------------------------------------------------------------------------------
 ----                             MULTIGRID INFO                            ----
 -------------------------------------------------------------------------------
 count for grid        1:        1332765          cutoff [a.u.]          400.00
 count for grid        2:        2417937          cutoff [a.u.]          133.33
 count for grid        3:        1703453          cutoff [a.u.]           44.44
 count for grid        4:        1340309          cutoff [a.u.]           14.81
 count for grid        5:         644644          cutoff [a.u.]            4.94
 total gridlevel count  :        7439108

 -------------------------------------------------------------------------------
 -                                                                             -
 -                         MESSAGE PASSING PERFORMANCE                         -
 -                                                                             -
 -------------------------------------------------------------------------------

 ROUTINE             CALLS      AVE VOLUME [Bytes]
 MP_Group                5
 MP_Bcast             4811                 281236.
 MP_Allreduce         3969                  47837.
 MP_Sync                 6
 MP_Alltoall           487               28177643.
 MP_SendRecv        202356                1650245.
 MP_ISendRecv         6804                 135893.
 MP_Wait              8780
 MP_ISend             1672                1397005.
 MP_IRecv             1672                1397005.
 MP_Recv               156                2499840.
 -------------------------------------------------------------------------------


 -------------------------------------------------------------------------------
 -                                                                             -
 -                           R E F E R E N C E S                               -
 -                                                                             -
 -------------------------------------------------------------------------------
 
 CP2K version 7.1, the CP2K developers group (2019).
 CP2K is freely available from https://www.cp2k.org/ .

 Schuett, Ole; Messmer, Peter; Hutter, Juerg; VandeVondele, Joost. 
 Electronic Structure Calculations on Graphics Processing Units, John
 Wiley & Sons, Ltd, 173-190 (2016). 
 GPU-Accelerated Sparse Matrix-Matrix Multiplication for
 Linear Scaling Density Functional Theory.
 https://dx.doi.org/10.1002/9781118670712.ch8

 Borstnik, U; VandeVondele, J; Weber, V; Hutter, J. 
 PARALLEL COMPUTING, 40 (5-6), 47-58 (2014). 
 Sparse matrix multiplication: The distributed block-compressed sparse
 row library.
 https://dx.doi.org/10.1016/j.parco.2014.03.012

 Hutter, J; Iannuzzi, M; Schiffmann, F; VandeVondele, J. 
 WIREs Comput Mol Sci., 4 (1), 15-25 (2014). 
 CP2K: atomistic simulations of condensed matter systems.
 https://dx.doi.org/10.1002/wcms.1159

 Marek, A; Blum, V; Johanni, R; Havu, V; Lang, B; Auckenthaler, T;
 Heinecke, A; Bungartz, H; Lederer, H. 
 Journal of Physics: Condensed Matter, 26 (21), (2014). 
 The ELPA library: scalable parallel eigenvalue solutions for
 electronic structure
 theory and computational science.
 https://dx.doi.org/10.1088/0953-8984/26/21/213201

 Grimme, S; Ehrlich, S; Goerigk, L. 
 JOURNAL OF COMPUTATIONAL CHEMISTRY, 32, 1456 (2011). 
 Effect of the damping function in dispersion corrected density functional theory.
 https://dx.doi.org/10.1002/jcc.21759

 Grimme, S; Antony, J; Ehrlich, S; Krieg, H. 
 JOURNAL OF CHEMICAL PHYSICS, 132 (15), 154104 (2010). 
 A consistent and accurate ab initio parametrization of density
 functional dispersion correction (DFT-D) for the 94 elements H-Pu.
 https://dx.doi.org/10.1063/1.3382344

 VandeVondele, J; Hutter, J. 
 JOURNAL OF CHEMICAL PHYSICS, 127 (11), 114105 (2007). 
 Gaussian basis sets for accurate calculations on molecular systems in
 gas and condensed phases.
 https://dx.doi.org/10.1063/1.2770708

 Krack, M. 
 THEORETICAL CHEMISTRY ACCOUNTS, 114 (1-3), 145-152 (2005). 
 Pseudopotentials for H to Kr optimized for gradient-corrected
 exchange-correlation functionals.
 https://dx.doi.org/10.1007/s00214-005-0655-y

 VandeVondele, J; Krack, M; Mohamed, F; Parrinello, M; Chassaing, T;
 Hutter, J. COMPUTER PHYSICS COMMUNICATIONS, 167 (2), 103-128 (2005). 
 QUICKSTEP: Fast and accurate density functional calculations using a
 mixed Gaussian and plane waves approach.
 https://dx.doi.org/10.1016/j.cpc.2004.12.014

 Frigo, M; Johnson, SG. 
 PROCEEDINGS OF THE IEEE, 93 (2), 216-231 (2005). 
 The design and implementation of FFTW3.
 https://dx.doi.org/10.1109/JPROC.2004.840301

 Hartwigsen, C; Goedecker, S; Hutter, J. 
 PHYSICAL REVIEW B, 58 (7), 3641-3662 (1998). 
 Relativistic separable dual-space Gaussian pseudopotentials from H to Rn.
 https://dx.doi.org/10.1103/PhysRevB.58.3641

 Lippert, G; Hutter, J; Parrinello, M. 
 MOLECULAR PHYSICS, 92 (3), 477-487 (1997). 
 A hybrid Gaussian and plane wave density functional scheme.
 https://dx.doi.org/10.1080/002689797170220

 Perdew, JP; Burke, K; Ernzerhof, M. 
 PHYSICAL REVIEW LETTERS, 77 (18), 3865-3868 (1996). 
 Generalized gradient approximation made simple.
 https://dx.doi.org/10.1103/PhysRevLett.77.3865

 Goedecker, S; Teter, M; Hutter, J. 
 PHYSICAL REVIEW B, 54 (3), 1703-1710 (1996). 
 Separable dual-space Gaussian pseudopotentials.
 https://dx.doi.org/10.1103/PhysRevB.54.1703


 -------------------------------------------------------------------------------
 -                                                                             -
 -                                T I M I N G                                  -
 -                                                                             -
 -------------------------------------------------------------------------------
 SUBROUTINE                       CALLS  ASD         SELF TIME        TOTAL TIME
                                MAXIMUM       AVERAGE  MAXIMUM  AVERAGE  MAXIMUM
 CP2K                                 1  1.0    0.027    0.041 4391.146 4391.483
 qs_forces                            1  2.0    0.001    0.001 4390.390 4390.726
 qs_energies                          1  3.0    0.000    0.000 4382.574 4382.906
 scf_post_calculation_gpw             1  4.0    0.000    0.001 4223.767 4224.092
 get_localization_info                1  5.0    0.000    0.000 4222.561 4222.887
 qs_loc_driver                        1  6.0    0.000    0.000 4222.561 4222.887
 optimize_loc_berry                   1  7.0    0.068    0.073 4222.538 4222.861
 jacobi_rot_para                      1  8.0 3503.522 3788.211 4220.809 4221.133
 mp_allgather_d23                101052  9.0  437.136  618.957  437.136  618.957
 mp_sendrecv_zm3                 101052  9.0  253.525  332.813  253.525  332.813
 scf_env_do_scf                       1  4.0    0.000    0.000  151.910  151.996
 scf_env_do_scf_inner_loop           17  5.0    0.001    0.003  151.903  151.990
 -------------------------------------------------------------------------------

 The number of warnings for this run is : 0
 
 -------------------------------------------------------------------------------
  **** **** ******  **  PROGRAM ENDED AT                 2024-11-18 15:37:24.963
 ***** ** ***  *** **   PROGRAM RAN ON                                   c53-026
 **    ****   ******    PROGRAM RAN BY                                     jxzhu
 ***** **    ** ** **   PROGRAM PROCESS ID                                132846
  **** **  *******  **  PROGRAM STOPPED IN /data/jxzhu/nnp/dp_workdir/3723ef2098
                                           b37b0a0caf6ab16a61682f69948045/calc/t
                                           ask.000.000000
