363
Lattice="10.126 0.0 0.0 0.0 10.126 0.0 0.0 0.0 38.95" Properties=species:S:1:pos:R:3:initial_charges:R:1:forces:R:3 timestep=40000 energy=0.0 pbc="T T T"
 Cu        1.265721        1.265721       34.474998     0 0 0 0 
 Cu        3.797163        1.265721       34.474998     0 0 0 0
 Cu        6.328606        1.265721       34.474998     0 0 0 0
 Cu        8.860048        1.265721       34.474998     0 0 0 0
 Cu        1.265721        3.797163       34.474998     0 0 0 0
 Cu        3.797163        3.797163       34.474998     0 0 0 0
 Cu        6.328606        3.797163       34.474998     0 0 0 0
 Cu        8.860048        3.797163       34.474998     0 0 0 0
 Cu        1.265721        6.328606       34.474998     0 0 0 0
 Cu        3.797163        6.328606       34.474998     0 0 0 0
 Cu        6.328606        6.328606       34.474998     0 0 0 0
 Cu        8.860048        6.328606       34.474998     0 0 0 0
 Cu        1.265721        8.860048       34.474998     0 0 0 0
 Cu        3.797163        8.860048       34.474998     0 0 0 0
 Cu        6.328606        8.860048       34.474998     0 0 0 0
 Cu        8.860048        8.860048       34.474998     0 0 0 0
 Cu        0.000000        0.000000       36.264999     0 0 0 0
 Cu        2.531442        0.000000       36.264999     0 0 0 0
 Cu        5.062885        0.000000       36.264999     0 0 0 0
 Cu        7.594327        0.000000       36.264999     0 0 0 0
 Cu        0.000000        2.531442       36.264999     0 0 0 0
 Cu        2.531442        2.531442       36.264999     0 0 0 0
 Cu        5.062885        2.531442       36.264999     0 0 0 0
 Cu        7.594327        2.531442       36.264999     0 0 0 0
 Cu        0.000000        5.062885       36.264999     0 0 0 0
 Cu        2.531442        5.062885       36.264999     0 0 0 0
 Cu        5.062885        5.062885       36.264999     0 0 0 0
 Cu        7.594327        5.062885       36.264999     0 0 0 0
 Cu        0.000000        7.594327       36.264999     0 0 0 0
 Cu        2.531442        7.594327       36.264999     0 0 0 0
 Cu        5.062885        7.594327       36.264999     0 0 0 0
 Cu        7.594327        7.594327       36.264999     0 0 0 0
 Cu        1.265721        1.265721       38.055000     0 0 0 0
 Cu        3.797163        1.265721       38.055000     0 0 0 0
 Cu        6.328606        1.265721       38.055000     0 0 0 0
 Cu        8.860048        1.265721       38.055000     0 0 0 0
 Cu        1.265721        3.797163       38.055000     0 0 0 0
 Cu        3.797163        3.797163       38.055000     0 0 0 0
 Cu        6.328606        3.797163       38.055000     0 0 0 0
 Cu        8.860048        3.797163       38.055000     0 0 0 0
 Cu        1.265721        6.328606       38.055000     0 0 0 0
 Cu        3.797163        6.328606       38.055000     0 0 0 0
 Cu        6.328606        6.328606       38.055000     0 0 0 0
 Cu        8.860048        6.328606       38.055000     0 0 0 0
 Cu        1.265721        8.860048       38.055000     0 0 0 0
 Cu        3.797163        8.860048       38.055000     0 0 0 0
 Cu        6.328606        8.860048       38.055000     0 0 0 0
 Cu        8.860048        8.860048       38.055000     0 0 0 0
 Cu        0.000000        0.000000        0.895000     0 0 0 0
 Cu        2.531442        0.000000        0.895000     0 0 0 0
 Cu        5.062885        0.000000        0.895000     0 0 0 0
 Cu        7.594327        0.000000        0.895000     0 0 0 0
 Cu        0.000000        2.531442        0.895000     0 0 0 0
 Cu        2.531442        2.531442        0.895000     0 0 0 0
 Cu        5.062885        2.531442        0.895000     0 0 0 0
 Cu        7.594327        2.531442        0.895000     0 0 0 0
 Cu        0.000000        5.062885        0.895000     0 0 0 0
 Cu        2.531442        5.062885        0.895000     0 0 0 0
 Cu        5.062885        5.062885        0.895000     0 0 0 0
 Cu        7.594327        5.062885        0.895000     0 0 0 0
 Cu        0.000000        7.594327        0.895000     0 0 0 0
 Cu        2.531442        7.594327        0.895000     0 0 0 0
 Cu        5.062885        7.594327        0.895000     0 0 0 0
 Cu        7.594327        7.594327        0.895000     0 0 0 0
 Cu        1.265721        1.265721        2.685000     0 0 0 0
 Cu        3.797163        1.265721        2.685000     0 0 0 0
 Cu        6.328606        1.265721        2.685000     0 0 0 0
 Cu        8.860048        1.265721        2.685000     0 0 0 0
 Cu        1.265721        3.797163        2.685000     0 0 0 0
 Cu        3.797163        3.797163        2.685000     0 0 0 0
 Cu        6.328606        3.797163        2.685000     0 0 0 0
 Cu        8.860048        3.797163        2.685000     0 0 0 0
 Cu        1.265721        6.328606        2.685000     0 0 0 0
 Cu        3.797163        6.328606        2.685000     0 0 0 0
 Cu        6.328606        6.328606        2.685000     0 0 0 0
 Cu        8.860048        6.328606        2.685000     0 0 0 0
 Cu        1.265721        8.860048        2.685000     0 0 0 0
 Cu        3.797163        8.860048        2.685000     0 0 0 0
 Cu        6.328606        8.860048        2.685000     0 0 0 0
 Cu        8.860048        8.860048        2.685000     0 0 0 0
 Cu        0.000000        0.000000        4.475000     0 0 0 0
 Cu        2.531442        0.000000        4.475000     0 0 0 0
 Cu        5.062885        0.000000        4.475000     0 0 0 0
 Cu        7.594327        0.000000        4.475000     0 0 0 0
 Cu        0.000000        2.531442        4.475000     0 0 0 0
 Cu        2.531442        2.531442        4.475000     0 0 0 0
 Cu        5.062885        2.531442        4.475000     0 0 0 0
 Cu        7.594327        2.531442        4.475000     0 0 0 0
 Cu        0.000000        5.062885        4.475000     0 0 0 0
 Cu        2.531442        5.062885        4.475000     0 0 0 0
 Cu        5.062885        5.062885        4.475000     0 0 0 0
 Cu        7.594327        5.062885        4.475000     0 0 0 0
 Cu        0.000000        7.594327        4.475000     0 0 0 0
 Cu        2.531442        7.594327        4.475000     0 0 0 0
 Cu        5.062885        7.594327        4.475000     0 0 0 0
 Cu        7.594327        7.594327        4.475000     0 0 0 0
 Cl        3.554035        8.888151        6.303749     0 0 0 0
 Cl        9.233993        8.632212        6.443365     0 0 0 0
 Cl        8.936333        3.670337        6.223109     0 0 0 0
 Cl        4.117383        3.521558        6.175357     0 0 0 0
 Cl        1.273609        1.176083        6.226953     0 0 0 0
 Cl        1.504322        6.228429        6.162402     0 0 0 0
 Cl        6.355287        6.532736        6.178887     0 0 0 0
 Cl        6.539979        0.775549        6.336415     0 0 0 0
 Cl        2.818240        2.529659       32.738941     0 0 0 0
 Cl        7.474977        2.578275       32.651035     0 0 0 0
 Cl        2.316266        7.565495       32.560795     0 0 0 0
 Cl        8.152335        7.854245       32.551826     0 0 0 0
 Cl        5.159428        5.209889       32.757095     0 0 0 0
 Cl       10.033208        5.063461       32.764362     0 0 0 0
 Cl        0.076696        0.402554       32.518387     0 0 0 0
 Cl        5.049991       10.080830       32.759609     0 0 0 0
 O         2.339050        7.582900       27.328730     0 0 0 0
 H         1.646308        7.499433       27.923988     0 0 0 0
 H         1.859722        7.860798       26.519703     0 0 0 0
 O         0.297080        5.130074       10.567279     0 0 0 0
 H         0.607373        5.895209       11.063376     0 0 0 0
 H         0.338443        4.517255       11.287119     0 0 0 0
 O         0.924425        2.817507       20.523680     0 0 0 0
 H         0.284087        2.951297       19.809965     0 0 0 0
 H         0.699501        1.905659       20.927572     0 0 0 0
 O         8.262862        3.702364       21.005800     0 0 0 0
 H         8.918522        3.485092       21.688019     0 0 0 0
 H         7.946110        2.758233       20.809616     0 0 0 0
 O         4.628668        5.648977       11.780413     0 0 0 0
 H         3.913771        4.921976       11.510940     0 0 0 0
 H         4.257004        6.511931       12.033097     0 0 0 0
 O         1.053800       10.085847       11.437321     0 0 0 0
 H         1.549467        9.253207       11.532783     0 0 0 0
 H         0.073420        9.833649       11.567041     0 0 0 0
 O         1.527206        7.535346       19.732506     0 0 0 0
 H         2.360849        7.128169       20.167236     0 0 0 0
 H         0.722768        7.052654       20.129831     0 0 0 0
 O         7.630106        3.737789       12.034768     0 0 0 0
 H         7.584084        2.872681       11.583046     0 0 0 0
 H         7.565982        4.343539       11.302213     0 0 0 0
 O         1.308158        9.316083        8.776408     0 0 0 0
 H         1.036650        9.802469        9.654450     0 0 0 0
 H         0.548700        8.729731        8.611522     0 0 0 0
 O         7.494926        5.002048       15.593012     0 0 0 0
 H         8.211620        5.267706       14.984954     0 0 0 0
 H         6.822667        4.498151       15.017432     0 0 0 0
 O         3.622168        4.618505       27.487213     0 0 0 0
 H         4.593550        4.765301       27.642418     0 0 0 0
 H         3.368171        5.235402       26.704927     0 0 0 0
 O         8.885544        6.533871       20.763470     0 0 0 0
 H         7.889790        6.508902       20.666384     0 0 0 0
 H         9.091577        5.651004       21.095070     0 0 0 0
 O         2.020296        5.624685       17.682896     0 0 0 0
 H         1.554257        4.846725       17.357548     0 0 0 0
 H         1.586578        6.075975       18.439148     0 0 0 0
 O         3.257598        9.467467       24.517504     0 0 0 0
 H         2.421450        9.551901       23.976124     0 0 0 0
 H         2.979179       10.055648       25.283369     0 0 0 0
 O         2.223088        5.146228       25.013281     0 0 0 0
 H         2.680917        5.899198       24.556791     0 0 0 0
 H         1.224761        5.109830       25.175985     0 0 0 0
 O         1.262828        9.780634       22.514408     0 0 0 0
 H         0.267863        9.419636       22.631523     0 0 0 0
 H         1.561615        9.453502       21.622131     0 0 0 0
 O         4.822096        9.854869       11.479877     0 0 0 0
 H         5.529358        0.320010       11.095173     0 0 0 0
 H         4.380605        9.506993       10.618773     0 0 0 0
 O         6.272602        9.118932       14.750303     0 0 0 0
 H         5.519513        8.611573       14.506719     0 0 0 0
 H         6.131500        9.082028       15.742720     0 0 0 0
 O         6.524853        3.558548       24.705898     0 0 0 0
 H         5.835796        3.887303       24.060265     0 0 0 0
 H         6.392238        4.092125       25.501802     0 0 0 0
 O         6.172865        9.323440       25.732843     0 0 0 0
 H         5.486831        9.184823       25.091728     0 0 0 0
 H         5.860303        8.741245       26.442398     0 0 0 0
 O         3.331290        0.260550       29.586760     0 0 0 0
 H         4.091893       10.069212       28.990124     0 0 0 0
 H         3.692668       -0.085631       30.496220     0 0 0 0
 O         9.785315        5.420107       23.263735     0 0 0 0
 H         9.782825        4.423711       23.496914     0 0 0 0
 H         9.028005        5.803407       23.657990     0 0 0 0
 O         3.526188        1.426499        8.567113     0 0 0 0
 H         3.008342        0.663268        8.228991     0 0 0 0
 H         4.376143        1.031797        8.467088     0 0 0 0
 O         6.546798        8.689175        8.367010     0 0 0 0
 H         5.836225        8.770009        7.668239     0 0 0 0
 H         7.429524        8.786652        7.921166     0 0 0 0
 O         9.496412        5.579965       26.753122     0 0 0 0
 H         0.159598        5.803386       27.231010     0 0 0 0
 H         9.298949        4.742090       27.119093     0 0 0 0
 O         3.712785        6.858804       24.025843     0 0 0 0
 H         4.532850        6.726423       24.464037     0 0 0 0
 H         3.158875        7.699332       24.222153     0 0 0 0
 O         8.261429        4.195425       18.000954     0 0 0 0
 H         8.338268        4.216941       18.949709     0 0 0 0
 H         7.294290        4.387209       17.671745     0 0 0 0
 O         0.326211        6.026615       14.526244     0 0 0 0
 H         9.652798        6.493594       14.247269     0 0 0 0
 H         0.926479        6.052002       15.273237     0 0 0 0
 O         8.769875        0.867839       14.523084     0 0 0 0
 H         8.330826        1.180363       15.383033     0 0 0 0
 H         9.327176        1.639412       14.310618     0 0 0 0
 O         5.788186        3.623896       14.257781     0 0 0 0
 H         4.913718        4.097360       14.472425     0 0 0 0
 H         6.053521        3.915286       13.372429     0 0 0 0
 O         0.033890        3.666137       13.462914     0 0 0 0
 H         9.217197        3.768980       13.077795     0 0 0 0
 H         0.162088        4.538510       13.913020     0 0 0 0
 O         6.810965        3.065670        8.432039     0 0 0 0
 H         6.301068        3.092974        7.599914     0 0 0 0
 H         7.135165        3.956038        8.656802     0 0 0 0
 O         9.638065        3.370134       30.159134     0 0 0 0
 H         9.046727        3.864397       29.597076     0 0 0 0
 H         9.612196        3.802557       31.020609     0 0 0 0
 O         8.838160        7.229584       17.367249     0 0 0 0
 H         8.869044        7.142574       18.276789     0 0 0 0
 H         8.241928        6.635338       16.903839     0 0 0 0
 O         3.888133        3.068097       18.285954     0 0 0 0
 H         4.641208        3.686797       17.974888     0 0 0 0
 H         3.060789        3.679584       18.375561     0 0 0 0
 O         3.666083        8.134133        9.945006     0 0 0 0
 H         3.710873        7.111792        9.839161     0 0 0 0
 H         2.775833        8.448580        9.665936     0 0 0 0
 O         3.541537        8.360065       13.327514     0 0 0 0
 H         4.054273        8.939295       12.722297     0 0 0 0
 H         3.523965        8.900696       14.170050     0 0 0 0
 O         3.955660        5.819523        8.400066     0 0 0 0
 H         4.152889        6.566963        7.782899     0 0 0 0
 H         4.781537        5.472749        8.651913     0 0 0 0
 O         4.891743        0.785082       22.925236     0 0 0 0
 H         4.304439        0.966251       22.145704     0 0 0 0
 H         4.259943        0.286568       23.539919     0 0 0 0
 O         0.527507        3.519609       16.648479     0 0 0 0
 H         9.751977        3.790093       17.203634     0 0 0 0
 H         0.992365        2.752345       16.948633     0 0 0 0
 O         4.724843        8.449915       27.491039     0 0 0 0
 H         5.212361        8.009604       28.224485     0 0 0 0
 H         3.811234        8.073499       27.342674     0 0 0 0
 O         7.974062        8.217190       28.367022     0 0 0 0
 H         7.763040        7.300295       28.353037     0 0 0 0
 H         8.566634        8.374135       27.659880     0 0 0 0
 O         8.002087        3.085176       27.591373     0 0 0 0
 H         8.360081        2.929982       26.687895     0 0 0 0
 H         7.459277        2.238816       27.880491     0 0 0 0
 O         6.548015        1.022395       28.568459     0 0 0 0
 H         6.456100        0.459710       27.812366     0 0 0 0
 H         6.967511        0.603347       29.394789     0 0 0 0
 O         2.228886        2.164093       12.894909     0 0 0 0
 H         1.246110        2.520150       12.927262     0 0 0 0
 H         2.213137        1.220794       12.625307     0 0 0 0
 O         7.951914        0.786254       19.534660     0 0 0 0
 H         7.446163       10.101640       19.544209     0 0 0 0
 H         8.917898        0.525900       19.510998     0 0 0 0
 O         2.738119        2.811362       23.659971     0 0 0 0
 H         2.648196        3.734453       24.074730     0 0 0 0
 H         3.716658        2.623966       23.824213     0 0 0 0
 O         1.439694        7.291758       12.271114     0 0 0 0
 H         1.216326        7.153243       13.200001     0 0 0 0
 H         2.320834        7.616384       12.565145     0 0 0 0
 O         6.335555        6.672764       20.255100     0 0 0 0
 H         5.632863        7.287719       19.801720     0 0 0 0
 H         5.859958        5.983107       20.747309     0 0 0 0
 O         3.332582        3.465868       10.950403     0 0 0 0
 H         2.995797        3.164564       11.826571     0 0 0 0
 H         3.991934        2.865070       10.662596     0 0 0 0
 O         5.654456        5.144059       17.450237     0 0 0 0
 H         5.439921        5.773067       18.139853     0 0 0 0
 H         5.282793        5.676330       16.669786     0 0 0 0
 O         3.188526        3.821588       15.054989     0 0 0 0
 H         2.795999        3.712444       15.954259     0 0 0 0
 H         2.828246        3.294986       14.263466     0 0 0 0
 O         8.100969       10.093104       30.419889     0 0 0 0
 H         8.981851        0.340004       30.223820     0 0 0 0
 H         8.055937        9.347117       29.776764     0 0 0 0
 O         9.142284        8.585638       22.505106     0 0 0 0
 H         8.171198        8.821884       22.257149     0 0 0 0
 H         9.258857        7.637910       22.305164     0 0 0 0
 O         6.291054        5.041870       27.476873     0 0 0 0
 H         6.965703        4.322889       27.652925     0 0 0 0
 H         6.242032        5.461065       28.472307     0 0 0 0
 O         3.118260        5.521930       30.008631     0 0 0 0
 H         3.346647        5.307173       29.034960     0 0 0 0
 H         2.648564        6.380940       30.068428     0 0 0 0
 O         2.525022        1.476962       26.072058     0 0 0 0
 H         3.061142        1.900734       26.766741     0 0 0 0
 H         2.655680        1.841459       25.184450     0 0 0 0
 O         0.519604        9.999385       19.367270     0 0 0 0
 H         0.951659        0.303994       18.523430     0 0 0 0
 H         0.723253        9.089653       19.217882     0 0 0 0
 O         9.412673        2.026755        9.139776     0 0 0 0
 H         8.877456        1.301864        9.470128     0 0 0 0
 H         9.671084        1.787367        8.219887     0 0 0 0
 O         4.131776        1.003911       15.173456     0 0 0 0
 H         5.010907        1.133418       14.843772     0 0 0 0
 H         3.626226        1.686513       14.732473     0 0 0 0
 O         5.063617        3.192706       30.085234     0 0 0 0
 H         5.459694        2.940299       29.230684     0 0 0 0
 H         5.422182        2.478526       30.681812     0 0 0 0
 O         8.915588        0.542727       25.842703     0 0 0 0
 H         9.264814        1.024992       24.949900     0 0 0 0
 H         7.969866        0.162353       25.779461     0 0 0 0
 O         9.883432        9.409657       16.507341     0 0 0 0
 H         9.581107        9.783761       15.658085     0 0 0 0
 H         9.741780        8.455650       16.590914     0 0 0 0
 O         0.562115        7.872671       29.479197     0 0 0 0
 H        -0.086307        8.388768       30.080345     0 0 0 0
 H        10.025792        7.339591       29.003147     0 0 0 0
 O         4.726236        8.446575       19.203070     0 0 0 0
 H         4.141562        9.166661       19.483059     0 0 0 0
 H         5.185064        8.721275       18.389887     0 0 0 0
 O         1.752607        0.702140       17.244816     0 0 0 0
 H         2.617836        0.701543       16.807245     0 0 0 0
 H         1.113313        0.021638       16.882143     0 0 0 0
 O         9.022917        2.922076       24.150311     0 0 0 0
 H         9.590837        2.529877       24.800318     0 0 0 0
 H         8.094428        2.993524       24.525358     0 0 0 0
 O         8.239538        5.301153        9.018307     0 0 0 0
 H         7.652683        5.908360        9.548500     0 0 0 0
 H         9.091313        5.140247        9.514692     0 0 0 0
 O         2.400565        5.213304       21.415092     0 0 0 0
 H         2.056370        4.303587       21.095741     0 0 0 0
 H         1.775146        5.309550       22.097485     0 0 0 0
 O         6.539546        9.017504       22.352316     0 0 0 0
 H         6.343179        8.553938       21.603437     0 0 0 0
 H         5.833161        9.678971       22.686157     0 0 0 0
 O         6.987547        9.103811       17.684467     0 0 0 0
 H         7.461946        8.264818       17.605879     0 0 0 0
 H         7.711306        9.674305       17.336605     0 0 0 0
 O         3.080349        0.498934       20.271320     0 0 0 0
 H         3.421014        1.269878       19.730780     0 0 0 0
 H         2.239026        0.070366       19.958895     0 0 0 0
 O         7.652053        6.160924       24.947815     0 0 0 0
 H         6.870976        6.505213       24.502951     0 0 0 0
 H         7.446159        5.614045       25.763779     0 0 0 0
 O         8.243051        7.533243       13.744607     0 0 0 0
 H         8.196330        7.625680       12.776405     0 0 0 0
 H         7.674971        8.292973       14.041842     0 0 0 0
 O        10.061605        8.278084       26.126074     0 0 0 0
 H         9.806187        9.151122       25.814997     0 0 0 0
 H         9.420695        7.633572       25.796192     0 0 0 0
 O         6.711564        0.824888       10.083436     0 0 0 0
 H         6.906313        1.561594        9.327826     0 0 0 0
 H         6.612501       10.135305        9.621217     0 0 0 0
 O         5.387041        4.404751       21.761911     0 0 0 0
 H         5.662535        3.528674       21.520664     0 0 0 0
 H         4.429424        4.332000       21.771133     0 0 0 0
 O         0.250139        0.565338       28.385912     0 0 0 0
 H         9.910011       -0.023478       27.771030     0 0 0 0
 H         0.693056        9.986671       28.845434     0 0 0 0
 O         7.317414        1.940248       16.566570     0 0 0 0
 H         7.219638        2.807431       16.245138     0 0 0 0
 H         7.634334        2.040726       17.524549     0 0 0 0
 O         6.874466        5.514279       30.014208     0 0 0 0
 H         6.881461        6.345584       30.536406     0 0 0 0
 H         6.563755        4.746458       30.572464     0 0 0 0
 O         8.648549       10.039505       12.153165     0 0 0 0
 H         7.857503        0.044163       11.504797     0 0 0 0
 H         8.239463        0.048099       13.084796     0 0 0 0
 O         5.503146        7.939935       30.149088     0 0 0 0
 H         4.543735        7.785542       30.305176     0 0 0 0
 H         5.780944        8.274402       31.050606     0 0 0 0
 O         7.020309        6.678816       11.236076     0 0 0 0
 H         6.537786        7.379262       10.736910     0 0 0 0
 H         6.155576        6.148009       11.593302     0 0 0 0
 K         1.713662        3.570752        8.355466     0 0 0 0
 K         2.169543        2.926365       29.409843     0 0 0 0
