 DBCSR| CPU Multiplication driver                                           XSMM
 DBCSR| Multrec recursion limit                                              512
 DBCSR| Multiplication stack size                                           1000
 DBCSR| Maximum elements for images                                    UNLIMITED
 DBCSR| Multiplicative factor virtual images                                   1
 DBCSR| Use multiplication densification                                       T
 DBCSR| Multiplication size stacks                                             3
 DBCSR| Number of 3D layers                                               SINGLE
 DBCSR| Use MPI memory allocation                                              T
 DBCSR| Use RMA algorithm                                                      F
 DBCSR| Use Communication thread                                               T
 DBCSR| Communication thread load                                             87


  **** **** ******  **  PROGRAM STARTED AT               2024-12-23 18:05:48.086
 ***** ** ***  *** **   PROGRAM STARTED ON                               c53-019
 **    ****   ******    PROGRAM STARTED BY                                 jxzhu
 ***** **    ** ** **   PROGRAM PROCESS ID                                224918
  **** **  *******  **  PROGRAM STARTED IN /data/jxzhu/tmp_test/ai2-kit_wannier_
                                           ut/sorted

 CP2K| version string:                                          CP2K version 7.1
 CP2K| source code revision number:                                  git:e635599
 CP2K| cp2kflags: libint fftw3 libxc elpa parallel mpi3 scalapack xsmm spglib   
 CP2K| is freely available from                            https://www.cp2k.org/
 CP2K| Program compiled at                           Mon Mar 8 20:53:19 CST 2021
 CP2K| Program compiled on                                                 mgt01
 CP2K| Program compiled for                                                local
 CP2K| Data directory path                                    /data/jxzhu/basis/
 CP2K| Input file name                                                 input.inp

 GLOBAL| Force Environment number                                              1
 GLOBAL| Basis set file name                                        BASIS_MOLOPT
 GLOBAL| Potential file name                                      GTH_POTENTIALS
 GLOBAL| MM Potential file name                                     MM_POTENTIAL
 GLOBAL| Coordinate file name                                          coord.xyz
 GLOBAL| Method name                                                        CP2K
 GLOBAL| Project name                                                       cp2k
 GLOBAL| Preferred FFT library                                             FFTW3
 GLOBAL| Preferred diagonalization lib.                                     ELPA
 GLOBAL| Run type                                                   ENERGY_FORCE
 GLOBAL| All-to-all communication in single precision                          F
 GLOBAL| FFTs using library dependent lengths                                  F
 GLOBAL| Global print level                                               MEDIUM
 GLOBAL| MPI I/O enabled                                                       T
 GLOBAL| Total number of message passing processes                            32
 GLOBAL| Number of threads for this process                                    1
 GLOBAL| This output is from process                                           0
 GLOBAL| CPU model name                Intel(R) Xeon(R) Gold 6226R CPU @ 2.90GHz
 GLOBAL| CPUID                                                              1003
 GLOBAL| Compiled for CPUID                                                 1002
 HINT in environment.F:814 The compiler target flags (x86_avx2) used to build
   this binary cannot exploit all extensions of this CPU model (x86_avx512).
   Consider compiler target flags as part of FCFLAGS and CFLAGS (ARCH file).

 MEMORY| system memory details [Kb]
 MEMORY|                        rank 0           min           max       average
 MEMORY| MemTotal            196481376     196481376     196481376     196481376
 MEMORY| MemFree             182897628     182897628     182897628     182897628
 MEMORY| Buffers                     0             0             0             0
 MEMORY| Cached                 689276        689276        689276        689276
 MEMORY| Slab                   422496        422496        422496        422496
 MEMORY| SReclaimable           114656        114656        114656        114656
 MEMORY| MemLikelyFree       183701560     183701560     183701560     183701560


 *** Fundamental physical constants (SI units) ***

 *** Literature: B. J. Mohr and B. N. Taylor,
 ***             CODATA recommended values of the fundamental physical
 ***             constants: 2006, Web Version 5.1
 ***             http://physics.nist.gov/constants

 Speed of light in vacuum [m/s]                             2.99792458000000E+08
 Magnetic constant or permeability of vacuum [N/A**2]       1.25663706143592E-06
 Electric constant or permittivity of vacuum [F/m]          8.85418781762039E-12
 Planck constant (h) [J*s]                                  6.62606896000000E-34
 Planck constant (h-bar) [J*s]                              1.05457162825177E-34
 Elementary charge [C]                                      1.60217648700000E-19
 Electron mass [kg]                                         9.10938215000000E-31
 Electron g factor [ ]                                     -2.00231930436220E+00
 Proton mass [kg]                                           1.67262163700000E-27
 Fine-structure constant                                    7.29735253760000E-03
 Rydberg constant [1/m]                                     1.09737315685270E+07
 Avogadro constant [1/mol]                                  6.02214179000000E+23
 Boltzmann constant [J/K]                                   1.38065040000000E-23
 Atomic mass unit [kg]                                      1.66053878200000E-27
 Bohr radius [m]                                            5.29177208590000E-11

 *** Conversion factors ***

 [u] -> [a.u.]                                              1.82288848426455E+03
 [Angstrom] -> [Bohr] = [a.u.]                              1.88972613288564E+00
 [a.u.] = [Bohr] -> [Angstrom]                              5.29177208590000E-01
 [a.u.] -> [s]                                              2.41888432650478E-17
 [a.u.] -> [fs]                                             2.41888432650478E-02
 [a.u.] -> [J]                                              4.35974393937059E-18
 [a.u.] -> [N]                                              8.23872205491840E-08
 [a.u.] -> [K]                                              3.15774647902944E+05
 [a.u.] -> [kJ/mol]                                         2.62549961709828E+03
 [a.u.] -> [kcal/mol]                                       6.27509468713739E+02
 [a.u.] -> [Pa]                                             2.94210107994716E+13
 [a.u.] -> [bar]                                            2.94210107994716E+08
 [a.u.] -> [atm]                                            2.90362800883016E+08
 [a.u.] -> [eV]                                             2.72113838565563E+01
 [a.u.] -> [Hz]                                             6.57968392072181E+15
 [a.u.] -> [1/cm] (wave numbers)                            2.19474631370540E+05
 [a.u./Bohr**2] -> [1/cm]                                   5.14048714338585E+03
 

 CELL_TOP| Volume [angstrom^3]:                                         4130.657
 CELL_TOP| Vector a [angstrom    16.045     0.000     0.000    |a| =      16.045
 CELL_TOP| Vector b [angstrom     0.000    16.045     0.000    |b| =      16.045
 CELL_TOP| Vector c [angstrom     0.000     0.000    16.045    |c| =      16.045
 CELL_TOP| Angle (b,c), alpha [degree]:                                   90.000
 CELL_TOP| Angle (a,c), beta  [degree]:                                   90.000
 CELL_TOP| Angle (a,b), gamma [degree]:                                   90.000
 CELL_TOP| Numerically orthorhombic:                                         YES

 GENERATE|  Preliminary Number of Bonds generated:                             0
 GENERATE|  Achieved consistency in connectivity generation.

 CELL| Volume [angstrom^3]:                                             4130.657
 CELL| Vector a [angstrom]:      16.045     0.000     0.000    |a| =      16.045
 CELL| Vector b [angstrom]:       0.000    16.045     0.000    |b| =      16.045
 CELL| Vector c [angstrom]:       0.000     0.000    16.045    |c| =      16.045
 CELL| Angle (b,c), alpha [degree]:                                       90.000
 CELL| Angle (a,c), beta  [degree]:                                       90.000
 CELL| Angle (a,b), gamma [degree]:                                       90.000
 CELL| Numerically orthorhombic:                                             YES

 CELL_REF| Volume [angstrom^3]:                                         4130.657
 CELL_REF| Vector a [angstrom    16.045     0.000     0.000    |a| =      16.045
 CELL_REF| Vector b [angstrom     0.000    16.045     0.000    |b| =      16.045
 CELL_REF| Vector c [angstrom     0.000     0.000    16.045    |c| =      16.045
 CELL_REF| Angle (b,c), alpha [degree]:                                   90.000
 CELL_REF| Angle (a,c), beta  [degree]:                                   90.000
 CELL_REF| Angle (a,b), gamma [degree]:                                   90.000
 CELL_REF| Numerically orthorhombic:                                         YES

 *******************************************************************************
 *******************************************************************************
 **                                                                           **
 **     #####                         ##              ##                      **
 **    ##   ##            ##          ##              ##                      **
 **   ##     ##                       ##            ######                    **
 **   ##     ##  ##   ##  ##   #####  ##  ##   ####   ##    #####    #####    **
 **   ##     ##  ##   ##  ##  ##      ## ##   ##      ##   ##   ##  ##   ##   **
 **   ##  ## ##  ##   ##  ##  ##      ####     ###    ##   ######   ######    **
 **    ##  ###   ##   ##  ##  ##      ## ##      ##   ##   ##       ##        **
 **     #######   #####   ##   #####  ##  ##  ####    ##    #####   ##        **
 **           ##                                                    ##        **
 **                                                                           **
 **                                                ... make the atoms dance   **
 **                                                                           **
 **            Copyright (C) by CP2K developers group (2000 - 2019)           **
 **                                                                           **
 *******************************************************************************

 DFT| Spin restricted Kohn-Sham (RKS) calculation                            RKS
 DFT| Multiplicity                                                             1
 DFT| Number of spin states                                                    1
 DFT| Charge                                                                   0
 DFT| Self-interaction correction (SIC)                                       NO
 DFT| Cutoffs: density                                              1.000000E-10
 DFT|          gradient                                             1.000000E-10
 DFT|          tau                                                  1.000000E-10
 DFT|          cutoff_smoothing_range                               0.000000E+00
 DFT| XC density smoothing                                                  NONE
 DFT| XC derivatives                                                          PW
 FUNCTIONAL| ROUTINE=NEW
 FUNCTIONAL| PBE:
 FUNCTIONAL| J.P.Perdew, K.Burke, M.Ernzerhof, Phys. Rev. Letter, vol. 77, n 18,
 FUNCTIONAL|  pp. 3865-3868, (1996){spin unpolarized}                           
 vdW POTENTIAL|                                                   Pair Potential
 vdW POTENTIAL|          DFT-D3 (Version 3.1)
 vdW POTENTIAL|          Potential Form: S. Grimme et al, JCP 132: 154104 (2010)
 vdW POTENTIAL|          Zero Damping
 vdW POTENTIAL|          Cutoff Radius [Bohr]:                             20.00
 vdW POTENTIAL|          s6 Scaling Factor:                               1.0000
 vdW POTENTIAL|          sr6 Scaling Factor:                              1.2170
 vdW POTENTIAL|          s8 Scaling Factor:                               0.7220
 vdW POTENTIAL|          Cutoff for CN calculation:                   0.1000E-05

 QS| Method:                                                                 GPW
 QS| Density plane wave grid type                        NON-SPHERICAL FULLSPACE
 QS| Number of grid levels:                                                    5
 QS| Density cutoff [a.u.]:                                                400.0
 QS| Multi grid cutoff [a.u.]: 1) grid level                               400.0
 QS|                           2) grid level                               133.3
 QS|                           3) grid level                                44.4
 QS|                           4) grid level                                14.8
 QS|                           5) grid level                                 4.9
 QS| Grid level progression factor:                                          3.0
 QS| Relative density cutoff [a.u.]:                                        20.0
 QS| Consistent realspace mapping and integration 
 QS| Interaction thresholds: eps_pgf_orb:                                3.2E-07
 QS|                         eps_filter_matrix:                          0.0E+00
 QS|                         eps_core_charge:                            1.0E-15
 QS|                         eps_rho_gspace:                             1.0E-13
 QS|                         eps_rho_rspace:                             1.0E-13
 QS|                         eps_gvg_rspace:                             3.2E-07
 QS|                         eps_ppl:                                    1.0E-02
 QS|                         eps_ppnl:                                   3.2E-09


 ATOMIC KIND INFORMATION

  1. Atomic kind: Cl                                    Number of atoms:       1

     Orbital Basis Set                                        DZVP-MOLOPT-SR-GTH

       Number of orbital shell sets:                                           1
       Number of orbital shells:                                               5
       Number of primitive Cartesian functions:                                4
       Number of Cartesian basis functions:                                   14
       Number of spherical basis functions:                                   13
       Norm type:                                                              2

       Normalised Cartesian orbitals:

                        Set   Shell   Orbital            Exponent    Coefficient

                          1       1    2s                2.379078       0.403013
                                                         1.470718       0.018727
                                                         0.461213      -0.342539
                                                         0.150015      -0.058490

                          1       2    3s                2.379078       0.556232
                                                         1.470718       0.430620
                                                         0.461213      -0.745502
                                                         0.150015       0.311453

                          1       3    3px               2.379078       0.636316
                                                         1.470718      -0.580855
                                                         0.461213      -0.325785
                                                         0.150015      -0.051764
                          1       3    3py               2.379078       0.636316
                                                         1.470718      -0.580855
                                                         0.461213      -0.325785
                                                         0.150015      -0.051764
                          1       3    3pz               2.379078       0.636316
                                                         1.470718      -0.580855
                                                         0.461213      -0.325785
                                                         0.150015      -0.051764

                          1       4    4px               2.379078       0.838044
                                                         1.470718      -0.610657
                                                         0.461213      -0.295677
                                                         0.150015       0.171492
                          1       4    4py               2.379078       0.838044
                                                         1.470718      -0.610657
                                                         0.461213      -0.295677
                                                         0.150015       0.171492
                          1       4    4pz               2.379078       0.838044
                                                         1.470718      -0.610657
                                                         0.461213      -0.295677
                                                         0.150015       0.171492

                          1       5    4dx2              2.379078       0.509952
                                                         1.470718       0.891639
                                                         0.461213       0.295732
                                                         0.150015       0.008371
                          1       5    4dxy              2.379078       0.883263
                                                         1.470718       1.544364
                                                         0.461213       0.512223
                                                         0.150015       0.014498
                          1       5    4dxz              2.379078       0.883263
                                                         1.470718       1.544364
                                                         0.461213       0.512223
                                                         0.150015       0.014498
                          1       5    4dy2              2.379078       0.509952
                                                         1.470718       0.891639
                                                         0.461213       0.295732
                                                         0.150015       0.008371
                          1       5    4dyz              2.379078       0.883263
                                                         1.470718       1.544364
                                                         0.461213       0.512223
                                                         0.150015       0.014498
                          1       5    4dz2              2.379078       0.509952
                                                         1.470718       0.891639
                                                         0.461213       0.295732
                                                         0.150015       0.008371

     GTH Potential information for                                    GTH-PBE-q7

       Description:                       Goedecker-Teter-Hutter pseudopotential
                                           Goedecker et al., PRB 54, 1703 (1996)
                                          Hartwigsen et al., PRB 58, 3641 (1998)
                                                      Krack, TCA 114, 145 (2005)

       Gaussian exponent of the core charge distribution:               2.974420
       Electronic configuration (s p d ...):                               2   5

       Parameters of the local part of the GTH pseudopotential:

                          rloc        C1          C2          C3          C4
                        0.410000   -6.392082

       Parameters of the non-local part of the GTH pseudopotential:

                   l      r(l)      h(i,j,l)

                   0    0.339539   15.218990   -4.934523
                                   -4.934523    6.370442
                   1    0.378474    4.338775

  2. Atomic kind: H                                     Number of atoms:     256

     Orbital Basis Set                                        DZVP-MOLOPT-SR-GTH

       Number of orbital shell sets:                                           1
       Number of orbital shells:                                               3
       Number of primitive Cartesian functions:                                5
       Number of Cartesian basis functions:                                    5
       Number of spherical basis functions:                                    5
       Norm type:                                                              2

       Normalised Cartesian orbitals:

                        Set   Shell   Orbital            Exponent    Coefficient

                          1       1    2s               10.068468      -0.133023
                                                         2.680223      -0.177618
                                                         0.791502      -0.258419
                                                         0.239116      -0.107525
                                                         0.082193      -0.014019

                          1       2    3s               10.068468       0.344673
                                                         2.680223       1.819821
                                                         0.791502      -0.999069
                                                         0.239116       0.017430
                                                         0.082193       0.082660

                          1       3    3px              10.068468       0.155326
                                                         2.680223       0.367157
                                                         0.791502       0.311480
                                                         0.239116       0.080105
                                                         0.082193       0.033440
                          1       3    3py              10.068468       0.155326
                                                         2.680223       0.367157
                                                         0.791502       0.311480
                                                         0.239116       0.080105
                                                         0.082193       0.033440
                          1       3    3pz              10.068468       0.155326
                                                         2.680223       0.367157
                                                         0.791502       0.311480
                                                         0.239116       0.080105
                                                         0.082193       0.033440

     GTH Potential information for                                    GTH-PBE-q1

       Description:                       Goedecker-Teter-Hutter pseudopotential
                                           Goedecker et al., PRB 54, 1703 (1996)
                                          Hartwigsen et al., PRB 58, 3641 (1998)
                                                      Krack, TCA 114, 145 (2005)

       Gaussian exponent of the core charge distribution:              12.500000
       Electronic configuration (s p d ...):                                   1

       Parameters of the local part of the GTH pseudopotential:

                          rloc        C1          C2          C3          C4
                        0.200000   -4.178900    0.724463

  3. Atomic kind: N                                     Number of atoms:       1

     Orbital Basis Set                                        DZVP-MOLOPT-SR-GTH

       Number of orbital shell sets:                                           1
       Number of orbital shells:                                               5
       Number of primitive Cartesian functions:                                5
       Number of Cartesian basis functions:                                   14
       Number of spherical basis functions:                                   13
       Norm type:                                                              2

       Normalised Cartesian orbitals:

                        Set   Shell   Orbital            Exponent    Coefficient

                          1       1    2s                7.341988       0.360561
                                                         2.542637       0.139177
                                                         0.888575      -0.289383
                                                         0.333802      -0.182244
                                                         0.112012      -0.019197

                          1       2    3s                7.341988       0.282000
                                                         2.542637       0.177875
                                                         0.888575      -0.278381
                                                         0.333802       0.008577
                                                         0.112012       0.154176

                          1       3    3px               7.341988      -1.188719
                                                         2.542637      -0.973969
                                                         0.888575      -0.501079
                                                         0.333802      -0.144894
                                                         0.112012      -0.013986
                          1       3    3py               7.341988      -1.188719
                                                         2.542637      -0.973969
                                                         0.888575      -0.501079
                                                         0.333802      -0.144894
                                                         0.112012      -0.013986
                          1       3    3pz               7.341988      -1.188719
                                                         2.542637      -0.973969
                                                         0.888575      -0.501079
                                                         0.333802      -0.144894
                                                         0.112012      -0.013986

                          1       4    4px               7.341988      -0.094798
                                                         2.542637       0.050069
                                                         0.888575      -0.114797
                                                         0.333802       0.144793
                                                         0.112012       0.066710
                          1       4    4py               7.341988      -0.094798
                                                         2.542637       0.050069
                                                         0.888575      -0.114797
                                                         0.333802       0.144793
                                                         0.112012       0.066710
                          1       4    4pz               7.341988      -0.094798
                                                         2.542637       0.050069
                                                         0.888575      -0.114797
                                                         0.333802       0.144793
                                                         0.112012       0.066710

                          1       5    4dx2              7.341988       1.354688
                                                         2.542637       0.690378
                                                         0.888575       0.855359
                                                         0.333802       0.091746
                                                         0.112012       0.001253
                          1       5    4dxy              7.341988       2.346389
                                                         2.542637       1.195770
                                                         0.888575       1.481524
                                                         0.333802       0.158910
                                                         0.112012       0.002169
                          1       5    4dxz              7.341988       2.346389
                                                         2.542637       1.195770
                                                         0.888575       1.481524
                                                         0.333802       0.158910
                                                         0.112012       0.002169
                          1       5    4dy2              7.341988       1.354688
                                                         2.542637       0.690378
                                                         0.888575       0.855359
                                                         0.333802       0.091746
                                                         0.112012       0.001253
                          1       5    4dyz              7.341988       2.346389
                                                         2.542637       1.195770
                                                         0.888575       1.481524
                                                         0.333802       0.158910
                                                         0.112012       0.002169
                          1       5    4dz2              7.341988       1.354688
                                                         2.542637       0.690378
                                                         0.888575       0.855359
                                                         0.333802       0.091746
                                                         0.112012       0.001253

     GTH Potential information for                                    GTH-PBE-q5

       Description:                       Goedecker-Teter-Hutter pseudopotential
                                           Goedecker et al., PRB 54, 1703 (1996)
                                          Hartwigsen et al., PRB 58, 3641 (1998)
                                                      Krack, TCA 114, 145 (2005)

       Gaussian exponent of the core charge distribution:               6.208322
       Electronic configuration (s p d ...):                               2   3

       Parameters of the local part of the GTH pseudopotential:

                          rloc        C1          C2          C3          C4
                        0.283791  -12.415226    1.868096

       Parameters of the non-local part of the GTH pseudopotential:

                   l      r(l)      h(i,j,l)

                   0    0.255405   13.630263
                   1    0.245495

  4. Atomic kind: Na                                    Number of atoms:       4

     Orbital Basis Set                                        DZVP-MOLOPT-SR-GTH

       Number of orbital shell sets:                                           1
       Number of orbital shells:                                               5
       Number of primitive Cartesian functions:                                7
       Number of Cartesian basis functions:                                    9
       Number of spherical basis functions:                                    9
       Norm type:                                                              2

       Normalised Cartesian orbitals:

                        Set   Shell   Orbital            Exponent    Coefficient

                          1       1    2s               23.518801       0.288931
                                                        11.135656       0.787174
                                                         4.647814      -0.190850
                                                         1.866708      -0.573823
                                                         0.734684      -0.276866
                                                         0.275673      -0.024211
                                                         0.049895      -0.000019

                          1       2    3s               23.518801       0.039212
                                                        11.135656       0.138585
                                                         4.647814      -0.048916
                                                         1.866708      -0.102378
                                                         0.734684      -0.139633
                                                         0.275673       0.012767
                                                         0.049895       0.077569

                          1       3    4s               23.518801       0.303698
                                                        11.135656      -0.548845
                                                         4.647814       0.534441
                                                         1.866708      -0.220920
                                                         0.734684       0.980584
                                                         0.275673      -0.653367
                                                         0.049895       0.063703

                          1       4    3px              23.518801      -2.919466
                                                        11.135656      -2.855941
                                                         4.647814      -2.579491
                                                         1.866708      -1.208264
                                                         0.734684      -0.321406
                                                         0.275673      -0.035032
                                                         0.049895      -0.000067
                          1       4    3py              23.518801      -2.919466
                                                        11.135656      -2.855941
                                                         4.647814      -2.579491
                                                         1.866708      -1.208264
                                                         0.734684      -0.321406
                                                         0.275673      -0.035032
                                                         0.049895      -0.000067
                          1       4    3pz              23.518801      -2.919466
                                                        11.135656      -2.855941
                                                         4.647814      -2.579491
                                                         1.866708      -1.208264
                                                         0.734684      -0.321406
                                                         0.275673      -0.035032
                                                         0.049895      -0.000067

                          1       5    4px              23.518801      -0.381914
                                                        11.135656      -0.488169
                                                         4.647814      -0.407378
                                                         1.866708      -0.201739
                                                         0.734684      -0.078845
                                                         0.275673       0.043427
                                                         0.049895       0.031563
                          1       5    4py              23.518801      -0.381914
                                                        11.135656      -0.488169
                                                         4.647814      -0.407378
                                                         1.866708      -0.201739
                                                         0.734684      -0.078845
                                                         0.275673       0.043427
                                                         0.049895       0.031563
                          1       5    4pz              23.518801      -0.381914
                                                        11.135656      -0.488169
                                                         4.647814      -0.407378
                                                         1.866708      -0.201739
                                                         0.734684      -0.078845
                                                         0.275673       0.043427
                                                         0.049895       0.031563

     GTH Potential information for                                    GTH-PBE-q9

       Description:                       Goedecker-Teter-Hutter pseudopotential
                                           Goedecker et al., PRB 54, 1703 (1996)
                                          Hartwigsen et al., PRB 58, 3641 (1998)
                                                      Krack, TCA 114, 145 (2005)

       Gaussian exponent of the core charge distribution:               8.937631
       Electronic configuration (s p d ...):                               3   6

       Parameters of the local part of the GTH pseudopotential:

                          rloc        C1          C2          C3          C4
                        0.236523    0.295105   -0.913885

       Parameters of the non-local part of the GTH pseudopotential:

                   l      r(l)      h(i,j,l)

                   0    0.143560   34.601492
                   1    0.129932  -14.277462

  5. Atomic kind: O                                     Number of atoms:     139

     Orbital Basis Set                                        DZVP-MOLOPT-SR-GTH

       Number of orbital shell sets:                                           1
       Number of orbital shells:                                               5
       Number of primitive Cartesian functions:                                5
       Number of Cartesian basis functions:                                   14
       Number of spherical basis functions:                                   13
       Norm type:                                                              2

       Normalised Cartesian orbitals:

                        Set   Shell   Orbital            Exponent    Coefficient

                          1       1    2s               10.389228       0.396646
                                                         3.849621       0.208811
                                                         1.388401      -0.301641
                                                         0.496955      -0.274061
                                                         0.162492      -0.033677

                          1       2    3s               10.389228       0.303673
                                                         3.849621       0.240943
                                                         1.388401      -0.313066
                                                         0.496955      -0.043055
                                                         0.162492       0.213991

                          1       3    3px              10.389228      -1.530415
                                                         3.849621      -1.371928
                                                         1.388401      -0.761951
                                                         0.496955      -0.253695
                                                         0.162492      -0.035541
                          1       3    3py              10.389228      -1.530415
                                                         3.849621      -1.371928
                                                         1.388401      -0.761951
                                                         0.496955      -0.253695
                                                         0.162492      -0.035541
                          1       3    3pz              10.389228      -1.530415
                                                         3.849621      -1.371928
                                                         1.388401      -0.761951
                                                         0.496955      -0.253695
                                                         0.162492      -0.035541

                          1       4    4px              10.389228      -0.565392
                                                         3.849621      -0.038231
                                                         1.388401      -0.382373
                                                         0.496955       0.179070
                                                         0.162492       0.122714
                          1       4    4py              10.389228      -0.565392
                                                         3.849621      -0.038231
                                                         1.388401      -0.382373
                                                         0.496955       0.179070
                                                         0.162492       0.122714
                          1       4    4pz              10.389228      -0.565392
                                                         3.849621      -0.038231
                                                         1.388401      -0.382373
                                                         0.496955       0.179070
                                                         0.162492       0.122714

                          1       5    4dx2             10.389228       1.867377
                                                         3.849621       0.670994
                                                         1.388401       1.353441
                                                         0.496955       0.273538
                                                         0.162492       0.006620
                          1       5    4dxy             10.389228       3.234392
                                                         3.849621       1.162195
                                                         1.388401       2.344229
                                                         0.496955       0.473781
                                                         0.162492       0.011466
                          1       5    4dxz             10.389228       3.234392
                                                         3.849621       1.162195
                                                         1.388401       2.344229
                                                         0.496955       0.473781
                                                         0.162492       0.011466
                          1       5    4dy2             10.389228       1.867377
                                                         3.849621       0.670994
                                                         1.388401       1.353441
                                                         0.496955       0.273538
                                                         0.162492       0.006620
                          1       5    4dyz             10.389228       3.234392
                                                         3.849621       1.162195
                                                         1.388401       2.344229
                                                         0.496955       0.473781
                                                         0.162492       0.011466
                          1       5    4dz2             10.389228       1.867377
                                                         3.849621       0.670994
                                                         1.388401       1.353441
                                                         0.496955       0.273538
                                                         0.162492       0.006620

     GTH Potential information for                                    GTH-PBE-q6

       Description:                       Goedecker-Teter-Hutter pseudopotential
                                           Goedecker et al., PRB 54, 1703 (1996)
                                          Hartwigsen et al., PRB 58, 3641 (1998)
                                                      Krack, TCA 114, 145 (2005)

       Gaussian exponent of the core charge distribution:               8.360253
       Electronic configuration (s p d ...):                               2   4

       Parameters of the local part of the GTH pseudopotential:

                          rloc        C1          C2          C3          C4
                        0.244554  -16.667215    2.487311

       Parameters of the non-local part of the GTH pseudopotential:

                   l      r(l)      h(i,j,l)

                   0    0.220956   18.337458
                   1    0.211332

  6. Atomic kind: S                                     Number of atoms:       1

     Orbital Basis Set                                        DZVP-MOLOPT-SR-GTH

       Number of orbital shell sets:                                           1
       Number of orbital shells:                                               5
       Number of primitive Cartesian functions:                                4
       Number of Cartesian basis functions:                                   14
       Number of spherical basis functions:                                   13
       Norm type:                                                              2

       Normalised Cartesian orbitals:

                        Set   Shell   Orbital            Exponent    Coefficient

                          1       1    2s                2.215855       0.308496
                                                         1.131471       0.138505
                                                         0.410168      -0.373736
                                                         0.140587      -0.040370

                          1       2    3s                2.215855      -0.329528
                                                         1.131471      -0.517509
                                                         0.410168       0.787368
                                                         0.140587      -0.322786

                          1       3    3px               2.215855       0.420434
                                                         1.131471      -0.319283
                                                         0.410168      -0.335323
                                                         0.140587      -0.030976
                          1       3    3py               2.215855       0.420434
                                                         1.131471      -0.319283
                                                         0.410168      -0.335323
                                                         0.140587      -0.030976
                          1       3    3pz               2.215855       0.420434
                                                         1.131471      -0.319283
                                                         0.410168      -0.335323
                                                         0.140587      -0.030976

                          1       4    4px               2.215855       0.241296
                                                         1.131471      -0.170582
                                                         0.410168      -0.186977
                                                         0.140587       0.153509
                          1       4    4py               2.215855       0.241296
                                                         1.131471      -0.170582
                                                         0.410168      -0.186977
                                                         0.140587       0.153509
                          1       4    4pz               2.215855       0.241296
                                                         1.131471      -0.170582
                                                         0.410168      -0.186977
                                                         0.140587       0.153509

                          1       5    4dx2              2.215855       0.573559
                                                         1.131471       0.544926
                                                         0.410168       0.228284
                                                         0.140587       0.008811
                          1       5    4dxy              2.215855       0.993434
                                                         1.131471       0.943840
                                                         0.410168       0.395400
                                                         0.140587       0.015260
                          1       5    4dxz              2.215855       0.993434
                                                         1.131471       0.943840
                                                         0.410168       0.395400
                                                         0.140587       0.015260
                          1       5    4dy2              2.215855       0.573559
                                                         1.131471       0.544926
                                                         0.410168       0.228284
                                                         0.140587       0.008811
                          1       5    4dyz              2.215855       0.993434
                                                         1.131471       0.943840
                                                         0.410168       0.395400
                                                         0.140587       0.015260
                          1       5    4dz2              2.215855       0.573559
                                                         1.131471       0.544926
                                                         0.410168       0.228284
                                                         0.140587       0.008811

     GTH Potential information for                                    GTH-PBE-q6

       Description:                       Goedecker-Teter-Hutter pseudopotential
                                           Goedecker et al., PRB 54, 1703 (1996)
                                          Hartwigsen et al., PRB 58, 3641 (1998)
                                                      Krack, TCA 114, 145 (2005)

       Gaussian exponent of the core charge distribution:               2.834467
       Electronic configuration (s p d ...):                               2   4

       Parameters of the local part of the GTH pseudopotential:

                          rloc        C1          C2          C3          C4
                        0.420000   -5.986260

       Parameters of the non-local part of the GTH pseudopotential:

                   l      r(l)      h(i,j,l)

                   0    0.364820   13.143544   -4.241830
                                   -4.241830    5.476180
                   1    0.409480    3.700891


 MOLECULE KIND INFORMATION


 All atoms are their own molecule, skipping detailed information


 TOTAL NUMBERS AND MAXIMUM NUMBERS

  Total number of            - Atomic kinds:                                   6
                             - Atoms:                                        402
                             - Shell sets:                                   402
                             - Shells:                                      1498
                             - Primitive Cartesian functions:               2016
                             - Cartesian basis functions:                   3304
                             - Spherical basis functions:                   3162

  Maximum angular momentum of- Orbital basis functions:                        2
                             - Local part of the GTH pseudopotential:          2
                             - Non-local part of the GTH pseudopotential:      2


 MODULE QUICKSTEP:  ATOMIC COORDINATES IN angstrom

  Atom  Kind  Element       X           Y           Z          Z(eff)       Mass

       1     1 Cl  17   11.221761   28.847280   16.702134      7.00      35.4530
       2     2 H    1   15.228268  -17.907477   -5.800314      1.00       1.0079
       3     2 H    1   13.749941  -18.186199   -5.489024      1.00       1.0079
       4     2 H    1   11.271700   10.802616   25.091209      1.00       1.0079
       5     2 H    1    9.895989   10.045791   25.402298      1.00       1.0079
       6     2 H    1   -2.817061    4.676120   -3.150555      1.00       1.0079
       7     2 H    1   -2.891076    3.900858   -4.471454      1.00       1.0079
       8     2 H    1   28.405399   -6.759686  -13.277633      1.00       1.0079
       9     2 H    1   29.242651   -5.321593  -13.186131      1.00       1.0079
      10     2 H    1   19.994789   23.142704   23.396039      1.00       1.0079
      11     2 H    1   18.614134   23.775237   22.947178      1.00       1.0079
      12     2 H    1   29.155952   33.916728   -3.076794      1.00       1.0079
      13     2 H    1   28.460210   33.204684   -1.878235      1.00       1.0079
      14     2 H    1  -14.102090   15.622579  -24.490820      1.00       1.0079
      15     2 H    1  -14.776242   14.307425  -24.326778      1.00       1.0079
      16     2 H    1  -14.853529    8.623853   10.340006      1.00       1.0079
      17     2 H    1  -15.400892    7.361804    9.593735      1.00       1.0079
      18     2 H    1   38.612598   15.444591    3.364085      1.00       1.0079
      19     2 H    1   38.284775   14.894843    4.719404      1.00       1.0079
      20     2 H    1  -11.572538   15.517184    7.322993      1.00       1.0079
      21     2 H    1  -11.348200   14.062169    6.775009      1.00       1.0079
      22     2 H    1    4.719226   40.669752    9.540442      1.00       1.0079
      23     2 H    1    5.580872   40.688834   10.884526      1.00       1.0079
      24     2 H    1    6.827092   -0.694129    7.479483      1.00       1.0079
      25     2 H    1    8.316439   -1.075759    7.920891      1.00       1.0079
      26     2 H    1   31.641199   43.411308  -10.051539      1.00       1.0079
      27     2 H    1   32.661118   42.202764  -10.300147      1.00       1.0079
      28     2 H    1    1.417957   29.641580  -21.492853      1.00       1.0079
      29     2 H    1    1.085105   30.538254  -20.153592      1.00       1.0079
      30     2 H    1   -7.182925   10.868281   16.603332      1.00       1.0079
      31     2 H    1   -7.358388    9.388646   16.108719      1.00       1.0079
      32     2 H    1   39.330221   21.203022  -11.681978      1.00       1.0079
      33     2 H    1   38.060995   20.453742  -11.167262      1.00       1.0079
      34     2 H    1   -0.621843  -30.524301   11.949518      1.00       1.0079
      35     2 H    1    0.424866  -31.355983   11.178823      1.00       1.0079
      36     2 H    1   12.624339   21.865608    4.920055      1.00       1.0079
      37     2 H    1   12.746540   20.692253    4.030171      1.00       1.0079
      38     2 H    1   10.621739    6.555329   -2.397856      1.00       1.0079
      39     2 H    1    9.505656    5.772104   -1.777049      1.00       1.0079
      40     2 H    1    7.977722    0.209897    1.313318      1.00       1.0079
      41     2 H    1    9.266133    0.770061    1.978404      1.00       1.0079
      42     2 H    1   37.974375   12.210399  -40.693101      1.00       1.0079
      43     2 H    1   37.399034   12.586850  -39.269985      1.00       1.0079
      44     2 H    1   31.734325  -17.681216   13.679893      1.00       1.0079
      45     2 H    1   32.354728  -16.169754   13.435975      1.00       1.0079
      46     2 H    1   -1.647162   -2.270913  -11.135340      1.00       1.0079
      47     2 H    1   -0.243719   -1.814578  -10.832421      1.00       1.0079
      48     2 H    1  -15.624790   24.463624   23.866407      1.00       1.0079
      49     2 H    1  -15.885846   23.332580   22.778079      1.00       1.0079
      50     2 H    1   16.856278    3.354580   12.224214      1.00       1.0079
      51     2 H    1   15.522543    4.104364   11.864851      1.00       1.0079
      52     2 H    1   17.105459   21.394115   -5.742641      1.00       1.0079
      53     2 H    1   16.573123   21.248273   -7.181905      1.00       1.0079
      54     2 H    1   33.638858   13.096100   16.536527      1.00       1.0079
      55     2 H    1   32.832813   13.956274   15.504982      1.00       1.0079
      56     2 H    1   12.833136    8.521762   15.809565      1.00       1.0079
      57     2 H    1   13.414379    9.912219   16.123250      1.00       1.0079
      58     2 H    1    7.922452   10.094247    8.770879      1.00       1.0079
      59     2 H    1    7.673732    9.398101   10.274264      1.00       1.0079
      60     2 H    1   43.167416   19.887213   -1.987998      1.00       1.0079
      61     2 H    1   43.333354   18.874406   -0.943774      1.00       1.0079
      62     2 H    1    8.045298   33.355537   -2.853888      1.00       1.0079
      63     2 H    1    9.402550   33.073201   -2.134841      1.00       1.0079
      64     2 H    1    7.407115   17.344570  -23.242981      1.00       1.0079
      65     2 H    1    7.745723   18.679815  -22.714201      1.00       1.0079
      66     2 H    1   13.508029    1.397144    7.561238      1.00       1.0079
      67     2 H    1   13.268260    1.257182    6.145540      1.00       1.0079
      68     2 H    1   -7.826763   12.461584    8.147834      1.00       1.0079
      69     2 H    1   -7.409109   12.780838    6.596781      1.00       1.0079
      70     2 H    1   -3.483488   12.954220   -7.620279      1.00       1.0079
      71     2 H    1   -4.145361   12.184698   -8.836824      1.00       1.0079
      72     2 H    1  -19.882163   21.273449   -6.333145      1.00       1.0079
      73     2 H    1  -18.580059   20.577996   -6.896366      1.00       1.0079
      74     2 H    1   46.322669   -3.673824   14.361434      1.00       1.0079
      75     2 H    1   46.996105   -3.678279   12.926131      1.00       1.0079
      76     2 H    1   -5.252932  -11.541428    2.501269      1.00       1.0079
      77     2 H    1   -4.929285  -13.029596    2.963271      1.00       1.0079
      78     2 H    1   16.505433  -37.914532   19.217321      1.00       1.0079
      79     2 H    1   15.683485  -37.286915   17.970470      1.00       1.0079
      80     2 H    1   -4.109963   14.644050   28.121821      1.00       1.0079
      81     2 H    1   -3.166466   13.431420   28.671705      1.00       1.0079
      82     2 H    1  -28.373606   11.279861    7.224652      1.00       1.0079
      83     2 H    1  -28.697091    9.820767    6.984221      1.00       1.0079
      84     2 H    1  -14.460154   11.970479   40.333104      1.00       1.0079
      85     2 H    1  -15.781308   12.456041   40.995102      1.00       1.0079
      86     2 H    1   10.239713   11.446834   44.347035      1.00       1.0079
      87     2 H    1   11.149491   12.566513   43.811572      1.00       1.0079
      88     2 H    1   -1.241364    5.383434   37.346859      1.00       1.0079
      89     2 H    1    0.263823    5.005548   37.512119      1.00       1.0079
      90     2 H    1    2.903662   11.750414   13.757838      1.00       1.0079
      91     2 H    1    1.550229   11.223859   14.132277      1.00       1.0079
      92     2 H    1   12.231321   24.730112   29.739377      1.00       1.0079
      93     2 H    1   13.234208   24.208330   28.730942      1.00       1.0079
      94     2 H    1   -7.451982   39.855550   14.487229      1.00       1.0079
      95     2 H    1   -8.819526   40.593500   14.479997      1.00       1.0079
      96     2 H    1   -8.663765  -15.814282   26.825472      1.00       1.0079
      97     2 H    1   -8.425809  -17.253772   26.566535      1.00       1.0079
      98     2 H    1    9.786074   24.865536    7.664829      1.00       1.0079
      99     2 H    1    9.606386   23.738858    6.616026      1.00       1.0079
     100     2 H    1   45.032391    5.436102   15.615765      1.00       1.0079
     101     2 H    1   45.039774    3.891776   15.490913      1.00       1.0079
     102     2 H    1   35.563707    8.187851    1.262893      1.00       1.0079
     103     2 H    1   35.559857    8.790020    2.706660      1.00       1.0079
     104     2 H    1    3.032172   -5.398565    4.762287      1.00       1.0079
     105     2 H    1    4.005620   -4.516897    3.796930      1.00       1.0079
     106     2 H    1   25.482598   28.785885   10.170710      1.00       1.0079
     107     2 H    1   24.211676   28.155693   10.103248      1.00       1.0079
     108     2 H    1   22.629452  -20.473667  -13.052365      1.00       1.0079
     109     2 H    1   22.668100  -19.887447  -14.570763      1.00       1.0079
     110     2 H    1   -2.464698   26.116312   11.371615      1.00       1.0079
     111     2 H    1   -3.148721   27.412931   11.165463      1.00       1.0079
     112     2 H    1   12.867606   10.663645   21.966651      1.00       1.0079
     113     2 H    1   11.426623   11.038138   21.511429      1.00       1.0079
     114     2 H    1  -15.817781   22.999580   -0.024842      1.00       1.0079
     115     2 H    1  -15.819520   23.448516    1.428158      1.00       1.0079
     116     2 H    1  -23.181387   10.099124   -2.340945      1.00       1.0079
     117     2 H    1  -22.231750   10.850539   -1.448118      1.00       1.0079
     118     2 H    1   -1.662098  -29.894092   15.404935      1.00       1.0079
     119     2 H    1   -0.123165  -29.581484   15.343211      1.00       1.0079
     120     2 H    1   25.031006    2.968250   -8.779187      1.00       1.0079
     121     2 H    1   24.631815    3.804798   -9.988921      1.00       1.0079
     122     2 H    1   26.653125   33.265465    8.489722      1.00       1.0079
     123     2 H    1   27.377224   34.564872    8.751613      1.00       1.0079
     124     2 H    1   15.357415    9.846324   24.904990      1.00       1.0079
     125     2 H    1   14.659811   10.927102   25.555875      1.00       1.0079
     126     2 H    1    1.060555    2.133825   19.343131      1.00       1.0079
     127     2 H    1    0.928480    0.727074   18.584779      1.00       1.0079
     128     2 H    1   24.819968  -18.032844    4.678995      1.00       1.0079
     129     2 H    1   25.722379  -19.314841    4.499949      1.00       1.0079
     130     2 H    1    2.829484    0.873078    4.102796      1.00       1.0079
     131     2 H    1    3.600921   -0.044479    5.055184      1.00       1.0079
     132     2 H    1   10.956023  -17.912678   24.157487      1.00       1.0079
     133     2 H    1   10.683076  -17.138585   25.473406      1.00       1.0079
     134     2 H    1   44.685776   -0.808816   16.824843      1.00       1.0079
     135     2 H    1   45.988225   -0.102426   17.253900      1.00       1.0079
     136     2 H    1   31.412472   -3.596200   16.751674      1.00       1.0079
     137     2 H    1   30.063904   -3.653653   17.662144      1.00       1.0079
     138     2 H    1    4.950345    1.139350   19.820606      1.00       1.0079
     139     2 H    1    4.960964    0.539788   18.367831      1.00       1.0079
     140     2 H    1   22.427244    7.727960    4.634602      1.00       1.0079
     141     2 H    1   21.179074    8.414640    4.873203      1.00       1.0079
     142     2 H    1   21.513630  -33.127680   29.972877      1.00       1.0079
     143     2 H    1   23.029934  -32.731774   30.034133      1.00       1.0079
     144     2 H    1   19.270013   20.836118   31.911585      1.00       1.0079
     145     2 H    1   18.435820   22.005200   32.600039      1.00       1.0079
     146     2 H    1  -10.890153   16.072560   11.600510      1.00       1.0079
     147     2 H    1  -12.195645   16.029378   12.485053      1.00       1.0079
     148     2 H    1   19.104811   21.583959   20.302690      1.00       1.0079
     149     2 H    1   18.922721   23.165028   20.392478      1.00       1.0079
     150     2 H    1   38.655631    3.368463   12.424229      1.00       1.0079
     151     2 H    1   39.917193    4.211460   12.097095      1.00       1.0079
     152     2 H    1    5.902717    6.008391  -23.697855      1.00       1.0079
     153     2 H    1    4.741138    5.887566  -22.655354      1.00       1.0079
     154     2 H    1   26.806109   32.928112   35.876266      1.00       1.0079
     155     2 H    1   27.899723   32.640363   34.794224      1.00       1.0079
     156     2 H    1   -9.888147   -5.294903  -10.960532      1.00       1.0079
     157     2 H    1   -9.040585   -4.098063  -10.505784      1.00       1.0079
     158     2 H    1    8.425295   22.741090   40.208113      1.00       1.0079
     159     2 H    1    8.082093   21.263646   39.810669      1.00       1.0079
     160     2 H    1  -20.186796    5.058795   23.349984      1.00       1.0079
     161     2 H    1  -19.822077    6.430620   23.134108      1.00       1.0079
     162     2 H    1   19.915997    3.090649   13.198823      1.00       1.0079
     163     2 H    1   20.218457    2.511956   11.697992      1.00       1.0079
     164     2 H    1  -14.360919  -21.136414    1.433323      1.00       1.0079
     165     2 H    1  -12.960529  -20.323513    1.667504      1.00       1.0079
     166     2 H    1  -17.436617   15.853760   -6.743751      1.00       1.0079
     167     2 H    1  -16.422834   16.730672   -7.433566      1.00       1.0079
     168     2 H    1   10.113346   41.780003   52.487523      1.00       1.0079
     169     2 H    1    9.269671   42.112105   53.811675      1.00       1.0079
     170     2 H    1   18.946277    9.130654   45.346983      1.00       1.0079
     171     2 H    1   18.229816    8.974209   46.806429      1.00       1.0079
     172     2 H    1   27.374698    7.649803   -4.469611      1.00       1.0079
     173     2 H    1   26.842721    7.935764   -5.914431      1.00       1.0079
     174     2 H    1  -21.884036    2.501152   28.634913      1.00       1.0079
     175     2 H    1  -22.252924    3.196358   27.364776      1.00       1.0079
     176     2 H    1   -0.773364  -24.740425   28.964778      1.00       1.0079
     177     2 H    1   -0.446041  -23.733316   27.886820      1.00       1.0079
     178     2 H    1  -11.973051   11.263548   -0.248317      1.00       1.0079
     179     2 H    1  -10.708208   12.056819   -0.130569      1.00       1.0079
     180     2 H    1    4.860397   13.682388   35.679287      1.00       1.0079
     181     2 H    1    3.281022   13.534679   35.984716      1.00       1.0079
     182     2 H    1   22.142314    1.331325   -0.550846      1.00       1.0079
     183     2 H    1   21.168078    2.719824   -0.485273      1.00       1.0079
     184     2 H    1   15.851956   25.820103   15.654426      1.00       1.0079
     185     2 H    1   15.835097   25.322118   14.141287      1.00       1.0079
     186     2 H    1   17.675940   14.090361  -26.510856      1.00       1.0079
     187     2 H    1   17.607652   12.669573  -26.877796      1.00       1.0079
     188     2 H    1  -12.778749   -6.874994   11.047904      1.00       1.0079
     189     2 H    1  -13.678329   -5.724252   11.726356      1.00       1.0079
     190     2 H    1  -10.199328    7.187896  -16.569905      1.00       1.0079
     191     2 H    1  -11.102550    8.442510  -17.037679      1.00       1.0079
     192     2 H    1    7.625955    8.156900   12.368891      1.00       1.0079
     193     2 H    1    7.587949    7.235227   11.201660      1.00       1.0079
     194     2 H    1   19.394210   16.361236    9.344506      1.00       1.0079
     195     2 H    1   19.419694   17.593258    8.302807      1.00       1.0079
     196     2 H    1  -10.972509    1.750786  -10.308154      1.00       1.0079
     197     2 H    1  -10.345136    1.887099   -8.794514      1.00       1.0079
     198     2 H    1    2.436319   14.706687   -1.847528      1.00       1.0079
     199     2 H    1    3.614297   15.078608   -0.963505      1.00       1.0079
     200     2 H    1   12.928748  -19.885170   36.619440      1.00       1.0079
     201     2 H    1   12.429224  -19.029591   35.295757      1.00       1.0079
     202     2 H    1   23.957586   13.780557   16.603995      1.00       1.0079
     203     2 H    1   22.712205   14.492759   15.771033      1.00       1.0079
     204     2 H    1   53.148890   12.416926   -2.389581      1.00       1.0079
     205     2 H    1   52.363876   13.516338   -3.238958      1.00       1.0079
     206     2 H    1   16.249191  -32.859575   33.077735      1.00       1.0079
     207     2 H    1   15.898143  -31.351773   32.779842      1.00       1.0079
     208     2 H    1    9.814754  -10.171864    5.389506      1.00       1.0079
     209     2 H    1    9.581464   -9.796882    3.933261      1.00       1.0079
     210     2 H    1  -23.414042   21.427176   -6.110978      1.00       1.0079
     211     2 H    1  -22.648410   21.846812   -4.753315      1.00       1.0079
     212     2 H    1   19.623606  -10.205253   27.891841      1.00       1.0079
     213     2 H    1   20.370776  -11.392264   27.468364      1.00       1.0079
     214     2 H    1   18.728712   -0.499729   17.297134      1.00       1.0079
     215     2 H    1   19.568217   -1.550060   18.100456      1.00       1.0079
     216     2 H    1    3.309297    3.657379    2.015500      1.00       1.0079
     217     2 H    1    4.353714    2.642302    2.376489      1.00       1.0079
     218     2 H    1   13.925105    9.163572   20.689858      1.00       1.0079
     219     2 H    1   15.072662    8.725540   21.691000      1.00       1.0079
     220     2 H    1    2.814755    6.851303   13.642818      1.00       1.0079
     221     2 H    1    2.256121    5.509615   13.682625      1.00       1.0079
     222     2 H    1    2.906563   19.133825  -11.052364      1.00       1.0079
     223     2 H    1    2.438494   19.704554   -9.666734      1.00       1.0079
     224     2 H    1   39.321995  -29.517880    5.172673      1.00       1.0079
     225     2 H    1   40.745077  -30.085074    4.945136      1.00       1.0079
     226     2 H    1   46.215995   -9.555402    2.841616      1.00       1.0079
     227     2 H    1   46.615222   -7.958231    2.658629      1.00       1.0079
     228     2 H    1  -16.958337    3.133622    8.111108      1.00       1.0079
     229     2 H    1  -17.022318    4.529742    7.184154      1.00       1.0079
     230     2 H    1   -3.064368   -8.722482    1.204595      1.00       1.0079
     231     2 H    1   -4.565960   -8.859016    1.020701      1.00       1.0079
     232     2 H    1   14.265234   16.009272   20.826335      1.00       1.0079
     233     2 H    1   14.577340   17.420361   20.493512      1.00       1.0079
     234     2 H    1    0.199844   21.341408   -2.854686      1.00       1.0079
     235     2 H    1   -0.936636   21.276331   -1.815056      1.00       1.0079
     236     2 H    1  -10.717932   -3.850354  -36.985270      1.00       1.0079
     237     2 H    1  -10.684375   -5.088388  -37.875642      1.00       1.0079
     238     2 H    1   -6.500067   30.992232   12.722900      1.00       1.0079
     239     2 H    1   -6.026321   32.159945   11.784213      1.00       1.0079
     240     2 H    1   -2.905619   17.476488   10.195405      1.00       1.0079
     241     2 H    1   -4.172347   18.173620   10.897283      1.00       1.0079
     242     2 H    1    4.738547  -26.725715   -1.935090      1.00       1.0079
     243     2 H    1    6.255819  -26.624140   -2.254315      1.00       1.0079
     244     2 H    1   -3.597819   17.648862    0.575992      1.00       1.0079
     245     2 H    1   -3.987911   19.011685    1.362902      1.00       1.0079
     246     2 H    1   16.375978   21.106855   18.126067      1.00       1.0079
     247     2 H    1   15.759546   19.787474   17.853955      1.00       1.0079
     248     2 H    1   10.648462    1.392779    6.045344      1.00       1.0079
     249     2 H    1    9.968170   -0.031532    6.277238      1.00       1.0079
     250     2 H    1    9.536722   13.695812   30.284487      1.00       1.0079
     251     2 H    1    8.502677   12.909984   29.599329      1.00       1.0079
     252     2 H    1   10.298686   25.298734    2.251658      1.00       1.0079
     253     2 H    1   10.047059   23.790703    2.671986      1.00       1.0079
     254     2 H    1    2.932599    3.900121  -22.967731      1.00       1.0079
     255     2 H    1    4.138101    3.917253  -23.956158      1.00       1.0079
     256     2 H    1   12.858823    7.580538   24.981365      1.00       1.0079
     257     2 H    1   13.617215    8.425299   23.917176      1.00       1.0079
     258     3 N    7    2.426921   18.597000   -0.758868      5.00      14.0067
     259     4 Na  11   -9.748090    9.224487    1.608321      9.00      22.9898
     260     4 Na  11    7.928606   19.419063   15.232946      9.00      22.9898
     261     4 Na  11    7.080098   18.910987    2.194218      9.00      22.9898
     262     4 Na  11  -11.048617  -10.277973   18.191985      9.00      22.9898
     263     5 O    8   -7.513758    6.748361    0.105633      6.00      15.9994
     264     5 O    8   -7.966750    4.603635    1.513847      6.00      15.9994
     265     5 O    8   -8.771447    6.888468    2.300141      6.00      15.9994
     266     5 O    8   -6.379676    6.381776    2.229028      6.00      15.9994
     267     5 O    8    2.130356   18.138674    0.365549      6.00      15.9994
     268     5 O    8    3.534346   19.274614   -0.975728      6.00      15.9994
     269     5 O    8    1.676912   18.527325   -1.749746      6.00      15.9994
     270     5 O    8   11.999641   29.485504   15.625458      6.00      15.9994
     271     5 O    8    9.763171   28.770530   16.355196      6.00      15.9994
     272     5 O    8   11.316941   29.696017   17.905845      6.00      15.9994
     273     5 O    8   11.702315   27.455547   16.975559      6.00      15.9994
     274     5 O    8   14.377909  -18.011249   -6.233856      6.00      15.9994
     275     5 O    8   10.776769    9.954761   24.963712      6.00      15.9994
     276     5 O    8   -2.428709    4.667399   -4.086794      6.00      15.9994
     277     5 O    8   29.260429   -6.282996  -13.371194      6.00      15.9994
     278     5 O    8   19.615148   23.874130   22.815710      6.00      15.9994
     279     5 O    8   29.315756   33.542669   -2.204425      6.00      15.9994
     280     5 O    8  -14.683756   15.048515  -24.998849      6.00      15.9994
     281     5 O    8  -15.617374    8.339985    9.776117      6.00      15.9994
     282     5 O    8   38.628552   14.609089    3.861333      6.00      15.9994
     283     5 O    8  -11.106293   15.014637    6.623334      6.00      15.9994
     284     5 O    8    4.761305   41.072117   10.482135      6.00      15.9994
     285     5 O    8    7.697325   -0.373413    7.713675      6.00      15.9994
     286     5 O    8   32.311960   43.032993  -10.658754      6.00      15.9994
     287     5 O    8    0.876492   30.415788  -21.159131      6.00      15.9994
     288     5 O    8   -7.521751    9.953562   16.849836      6.00      15.9994
     289     5 O    8   38.325340   21.103747  -11.824189      6.00      15.9994
     290     5 O    8    0.232655  -31.014332   12.037865      6.00      15.9994
     291     5 O    8   13.234023   21.495543    4.238523      6.00      15.9994
     292     5 O    8   10.000549    5.837171   -2.607109      6.00      15.9994
     293     5 O    8    8.570231    1.035677    1.275124      6.00      15.9994
     294     5 O    8   37.168218   12.416229  -40.248612      6.00      15.9994
     295     5 O    8   32.569341  -17.078780   13.739597      6.00      15.9994
     296     5 O    8   -1.156327   -1.683352  -10.499214      6.00      15.9994
     297     5 O    8  -15.375538   24.162857   22.912955      6.00      15.9994
     298     5 O    8   16.466336    4.197349   11.968836      6.00      15.9994
     299     5 O    8   17.143846   21.807149   -6.623760      6.00      15.9994
     300     5 O    8   32.797854   13.629331   16.435335      6.00      15.9994
     301     5 O    8   13.402045    9.249176   15.384639      6.00      15.9994
     302     5 O    8    8.177439   10.017308    9.707512      6.00      15.9994
     303     5 O    8   42.707967   19.067997   -1.712860      6.00      15.9994
     304     5 O    8    8.431194   33.082237   -1.971244      6.00      15.9994
     305     5 O    8    7.076767   17.982613  -22.578223      6.00      15.9994
     306     5 O    8   12.883543    1.711755    6.903493      6.00      15.9994
     307     5 O    8   -8.108904   12.385339    7.206660      6.00      15.9994
     308     5 O    8   -4.304249   12.537347   -7.873816      6.00      15.9994
     309     5 O    8  -19.563470   20.588926   -6.950466      6.00      15.9994
     310     5 O    8   46.543075   -3.092701   13.567091      6.00      15.9994
     311     5 O    8   -4.635893  -12.101500    2.974814      6.00      15.9994
     312     5 O    8   16.433824  -37.964624   18.246881      6.00      15.9994
     313     5 O    8   -3.510843   13.871879   27.856448      6.00      15.9994
     314     5 O    8  -29.085827   10.687199    6.754314      6.00      15.9994
     315     5 O    8  -14.781417   12.568834   41.003136      6.00      15.9994
     316     5 O    8   10.689035   11.688407   43.537533      6.00      15.9994
     317     5 O    8   -0.451288    5.532441   37.959572      6.00      15.9994
     318     5 O    8    1.975646   11.686044   13.409016      6.00      15.9994
     319     5 O    8   12.248937   24.117587   28.993914      6.00      15.9994
     320     5 O    8   -7.920611   40.636821   14.047642      6.00      15.9994
     321     5 O    8   -8.681087  -16.651835   27.340185      6.00      15.9994
     322     5 O    8    9.095112   24.344104    7.179060      6.00      15.9994
     323     5 O    8   45.200993    4.701033   14.918461      6.00      15.9994
     324     5 O    8   36.128298    8.422258    2.012057      6.00      15.9994
     325     5 O    8    3.290836   -5.229523    3.808521      6.00      15.9994
     326     5 O    8   24.602467   29.043777    9.847099      6.00      15.9994
[...]
    360      5      O           0.01201193     0.01337448    -0.00292831
    361      5      O          -0.00816893    -0.00187858     0.00775245
    362      5      O           0.00022793     0.02438766     0.01672318
    363      5      O           0.03939843    -0.00230662     0.00613615
    364      5      O           0.00309801    -0.01512375    -0.00000382
    365      5      O           0.00076085     0.00010796    -0.01679816
    366      5      O          -0.01367953    -0.01750219    -0.00074880
    367      5      O          -0.03844080    -0.00803672     0.01809398
    368      5      O           0.00308099    -0.00489236    -0.01294483
    369      5      O           0.00330468    -0.01567042    -0.01816276
    370      5      O          -0.00187502    -0.02851882    -0.01059799
    371      5      O           0.01405822     0.01033631     0.00659934
    372      5      O           0.01709069     0.00583011     0.03071422
    373      5      O           0.00227887     0.00314028    -0.00604384
    374      5      O          -0.01030932    -0.00492171     0.02212715
    375      5      O           0.01197749    -0.01800742     0.00103381
    376      5      O           0.00769328    -0.02813385     0.00074044
    377      5      O           0.01177944     0.00908579     0.00812251
    378      5      O           0.00898226     0.00309379     0.01301520
    379      5      O           0.00280488     0.00467324    -0.00771853
    380      5      O           0.01673671     0.00138385    -0.00816189
    381      5      O          -0.00608686    -0.03219303    -0.00544871
    382      5      O           0.01601782    -0.01201076     0.03432320
    383      5      O           0.02920981     0.03230127    -0.00697250
    384      5      O          -0.00658440    -0.00237641     0.02581560
    385      5      O           0.00713938    -0.00246655    -0.00884269
    386      5      O           0.00505686     0.00195392     0.00196239
    387      5      O          -0.00120422    -0.00710094    -0.00341617
    388      5      O          -0.00450300     0.00767728     0.02868339
    389      5      O           0.00582951    -0.01314061    -0.00499261
    390      5      O          -0.01957607     0.02250704     0.03313051
    391      5      O          -0.01770962    -0.01877217     0.01802076
    392      5      O           0.02347296     0.00659048    -0.00772144
    393      5      O           0.00336771    -0.01123708    -0.02255188
    394      5      O          -0.00051841     0.00669455     0.01139559
    395      5      O           0.00457351     0.00198196    -0.03284258
    396      5      O          -0.01721437    -0.02094270    -0.00770307
    397      5      O           0.01167577    -0.00973981     0.03537670
    398      5      O          -0.01035913    -0.01909900    -0.00319369
    399      5      O           0.01828040     0.03802407    -0.00443987
    400      5      O           0.01252979     0.02240807     0.01505344
    401      5      O          -0.03093565     0.03541368     0.01966978
    402      6      S           0.04113992     0.01683230    -0.02353272
 SUM OF ATOMIC FORCES          -0.00454714     0.00217149    -0.00125928     0.00519400

 -------------------------------------------------------------------------------
 -                                                                             -
 -                                DBCSR STATISTICS                             -
 -                                                                             -
 -------------------------------------------------------------------------------
 COUNTER                                    TOTAL       BLAS       SMM       ACC
 flops     9 x    28 x     9               435456       0.0%    100.0%      0.0%
 flops     9 x     9 x    92              5216400       0.0%    100.0%      0.0%
 flops     9 x     9 x    96              5443200       0.0%    100.0%      0.0%
 flops     9 x    32 x     9              8460288       0.0%    100.0%      0.0%
 flops     5 x    28 x     9             15482880       0.0%    100.0%      0.0%
 flops     9 x    28 x     5             15482880       0.0%    100.0%      0.0%
 flops     9 x     9 x    64             21772800       0.0%    100.0%      0.0%
 flops    13 x    28 x     9             22329216       0.0%    100.0%      0.0%
 flops     9 x    28 x    13             22329216       0.0%    100.0%      0.0%
 flops     5 x     9 x    92            148377600       0.0%    100.0%      0.0%
 flops     9 x     5 x    92            148377600       0.0%    100.0%      0.0%
 flops     5 x     9 x    96            154828800       0.0%    100.0%      0.0%
 flops     9 x     5 x    96            154828800       0.0%    100.0%      0.0%
 flops    13 x     9 x    92            213988320       0.0%    100.0%      0.0%
 flops     9 x    13 x    92            213988320       0.0%    100.0%      0.0%
 flops    13 x     9 x    96            223292160       0.0%    100.0%      0.0%
 flops     9 x    13 x    96            223292160       0.0%    100.0%      0.0%
 flops     5 x    32 x     9            300810240       0.0%    100.0%      0.0%
 flops     9 x    32 x     5            300810240       0.0%    100.0%      0.0%
 flops    13 x    32 x     9            433824768       0.0%    100.0%      0.0%
 flops     9 x    32 x    13            433824768       0.0%    100.0%      0.0%
 flops     5 x    28 x     5            550502400       0.0%    100.0%      0.0%
 flops     5 x     9 x    64            619315200       0.0%    100.0%      0.0%
 flops     9 x     5 x    64            619315200       0.0%    100.0%      0.0%
 flops     5 x    28 x    13            787790640       0.0%    100.0%      0.0%
 flops    13 x    28 x     5            787790640       0.0%    100.0%      0.0%
 flops    13 x     9 x    64            893168640       0.0%    100.0%      0.0%
 flops     9 x    13 x    64            893168640       0.0%    100.0%      0.0%
 flops    13 x    28 x    13           1015297920       0.0%    100.0%      0.0%
 flops     5 x     5 x    92           5296256000       0.0%    100.0%      0.0%
 flops     5 x     5 x    96           5526528000       0.0%    100.0%      0.0%
 flops     5 x    13 x    92           7548613800       0.0%    100.0%      0.0%
 flops    13 x     5 x    92           7550706800       0.0%    100.0%      0.0%
 flops     5 x    13 x    96           7876814400       0.0%    100.0%      0.0%
 flops    13 x     5 x    96           7878998400       0.0%    100.0%      0.0%
 flops    13 x    13 x    92           9807211960       0.0%    100.0%      0.0%
 flops    13 x    13 x    96          10233612480       0.0%    100.0%      0.0%
 flops     5 x    32 x     5          10695475200       0.0%    100.0%      0.0%
 flops     5 x    32 x    13          15305646720       0.0%    100.0%      0.0%
 flops    13 x    32 x     5          15305646720       0.0%    100.0%      0.0%
 flops    13 x    32 x    13          19725788160       0.0%    100.0%      0.0%
 flops     5 x     5 x    64          22106112000       0.0%    100.0%      0.0%
 flops     5 x    13 x    64          31507257600       0.0%    100.0%      0.0%
 flops    13 x     5 x    64          31515993600       0.0%    100.0%      0.0%
 flops    13 x    13 x    64          40934449920       0.0%    100.0%      0.0%
 flops inhomo. stacks                           0       0.0%      0.0%      0.0%
 flops total                       258.048657E+09       0.0%    100.0%      0.0%
 flops max/rank                      8.955628E+09       0.0%    100.0%      0.0%
 matmuls inhomo. stacks                         0       0.0%      0.0%      0.0%
 matmuls total                           39428264       0.0%    100.0%      0.0%
 number of processed stacks                 83542       0.0%    100.0%      0.0%
 average stack size                                     0.0     472.0       0.0
 marketing flops                   468.957823E+09
 -------------------------------------------------------------------------------
 # multiplications                             41
 max memory usage/rank             747.216896E+06
 # max total images/rank                        2
 # max 3D layers                                1
 # MPI messages exchanged                   17056
 MPI messages size (bytes):
  total size                         8.542149E+09
  min size                         199.680000E+03
  max size                           2.462304E+06
  average size                     500.829531E+03
 MPI breakdown and total messages size (bytes):
             size <=      128                   0                        0
       128 < size <=     8192                   0                        0
      8192 < size <=    32768                   0                        0
     32768 < size <=   131072                   0                        0
    131072 < size <=  4194304               17056               8542148064
   4194304 < size <= 16777216                   0                        0
  16777216 < size                               0                        0
 -------------------------------------------------------------------------------

 *** WARNING in dbcsr_mm.F:295 :: Using a non-square number of MPI ranks ***
 *** might lead to poor performance. Used ranks: 32 Suggested: 36 64     ***

 -------------------------------------------------------------------------------
 -                                                                             -
 -                      DBCSR MESSAGE PASSING PERFORMANCE                      -
 -                                                                             -
 -------------------------------------------------------------------------------
 ROUTINE             CALLS      AVE VOLUME [Bytes]
 MP_Group               42
 MP_Bcast               46                     12.
 MP_Allreduce          373                     13.
 MP_Alltoall           868                 677170.
 MP_Wait              2624
 MP_ISend             1312                 225938.
 MP_IRecv             1312                 215010.
 MP_Memory            2412
 -------------------------------------------------------------------------------

 MEMORY| Estimated peak process memory [MiB]                                 715

 -------------------------------------------------------------------------------
 ----                             MULTIGRID INFO                            ----
 -------------------------------------------------------------------------------
 count for grid        1:        1077953          cutoff [a.u.]          400.00
 count for grid        2:        1118953          cutoff [a.u.]          133.33
 count for grid        3:         867476          cutoff [a.u.]           44.44
 count for grid        4:         602708          cutoff [a.u.]           14.81
 count for grid        5:         237909          cutoff [a.u.]            4.94
 total gridlevel count  :        3904999

 -------------------------------------------------------------------------------
 -                                                                             -
 -                         MESSAGE PASSING PERFORMANCE                         -
 -                                                                             -
 -------------------------------------------------------------------------------

 ROUTINE             CALLS      AVE VOLUME [Bytes]
 MP_Group                5
 MP_Bcast             2209                 475170.
 MP_Allreduce         4237                   4143.
 MP_Sync                 6
 MP_Alltoall           787               26757932.
 MP_SendRecv        108066                 286931.
 MP_ISendRecv         6510                  92011.
 MP_Wait             12336
 MP_ISend             5324                 561794.
 MP_IRecv             5324                 561794.
 MP_Recv                51                 809472.
 -------------------------------------------------------------------------------


 -------------------------------------------------------------------------------
 -                                                                             -
 -                           R E F E R E N C E S                               -
 -                                                                             -
 -------------------------------------------------------------------------------
 
 CP2K version 7.1, the CP2K developers group (2019).
 CP2K is freely available from https://www.cp2k.org/ .

 Schuett, Ole; Messmer, Peter; Hutter, Juerg; VandeVondele, Joost. 
 Electronic Structure Calculations on Graphics Processing Units, John
 Wiley & Sons, Ltd, 173-190 (2016). 
 GPU-Accelerated Sparse Matrix-Matrix Multiplication for
 Linear Scaling Density Functional Theory.
 https://dx.doi.org/10.1002/9781118670712.ch8

 Borstnik, U; VandeVondele, J; Weber, V; Hutter, J. 
 PARALLEL COMPUTING, 40 (5-6), 47-58 (2014). 
 Sparse matrix multiplication: The distributed block-compressed sparse
 row library.
 https://dx.doi.org/10.1016/j.parco.2014.03.012

 Hutter, J; Iannuzzi, M; Schiffmann, F; VandeVondele, J. 
 WIREs Comput Mol Sci., 4 (1), 15-25 (2014). 
 CP2K: atomistic simulations of condensed matter systems.
 https://dx.doi.org/10.1002/wcms.1159

 Marek, A; Blum, V; Johanni, R; Havu, V; Lang, B; Auckenthaler, T;
 Heinecke, A; Bungartz, H; Lederer, H. 
 Journal of Physics: Condensed Matter, 26 (21), (2014). 
 The ELPA library: scalable parallel eigenvalue solutions for
 electronic structure
 theory and computational science.
 https://dx.doi.org/10.1088/0953-8984/26/21/213201

 Grimme, S; Ehrlich, S; Goerigk, L. 
 JOURNAL OF COMPUTATIONAL CHEMISTRY, 32, 1456 (2011). 
 Effect of the damping function in dispersion corrected density functional theory.
 https://dx.doi.org/10.1002/jcc.21759

 Grimme, S; Antony, J; Ehrlich, S; Krieg, H. 
 JOURNAL OF CHEMICAL PHYSICS, 132 (15), 154104 (2010). 
 A consistent and accurate ab initio parametrization of density
 functional dispersion correction (DFT-D) for the 94 elements H-Pu.
 https://dx.doi.org/10.1063/1.3382344

 VandeVondele, J; Hutter, J. 
 JOURNAL OF CHEMICAL PHYSICS, 127 (11), 114105 (2007). 
 Gaussian basis sets for accurate calculations on molecular systems in
 gas and condensed phases.
 https://dx.doi.org/10.1063/1.2770708

 Krack, M. 
 THEORETICAL CHEMISTRY ACCOUNTS, 114 (1-3), 145-152 (2005). 
 Pseudopotentials for H to Kr optimized for gradient-corrected
 exchange-correlation functionals.
 https://dx.doi.org/10.1007/s00214-005-0655-y

 VandeVondele, J; Krack, M; Mohamed, F; Parrinello, M; Chassaing, T;
 Hutter, J. COMPUTER PHYSICS COMMUNICATIONS, 167 (2), 103-128 (2005). 
 QUICKSTEP: Fast and accurate density functional calculations using a
 mixed Gaussian and plane waves approach.
 https://dx.doi.org/10.1016/j.cpc.2004.12.014

 Frigo, M; Johnson, SG. 
 PROCEEDINGS OF THE IEEE, 93 (2), 216-231 (2005). 
 The design and implementation of FFTW3.
 https://dx.doi.org/10.1109/JPROC.2004.840301

 Hartwigsen, C; Goedecker, S; Hutter, J. 
 PHYSICAL REVIEW B, 58 (7), 3641-3662 (1998). 
 Relativistic separable dual-space Gaussian pseudopotentials from H to Rn.
 https://dx.doi.org/10.1103/PhysRevB.58.3641

 Lippert, G; Hutter, J; Parrinello, M. 
 MOLECULAR PHYSICS, 92 (3), 477-487 (1997). 
 A hybrid Gaussian and plane wave density functional scheme.
 https://dx.doi.org/10.1080/002689797170220

 Perdew, JP; Burke, K; Ernzerhof, M. 
 PHYSICAL REVIEW LETTERS, 77 (18), 3865-3868 (1996). 
 Generalized gradient approximation made simple.
 https://dx.doi.org/10.1103/PhysRevLett.77.3865

 Goedecker, S; Teter, M; Hutter, J. 
 PHYSICAL REVIEW B, 54 (3), 1703-1710 (1996). 
 Separable dual-space Gaussian pseudopotentials.
 https://dx.doi.org/10.1103/PhysRevB.54.1703


 -------------------------------------------------------------------------------
 -                                                                             -
 -                                T I M I N G                                  -
 -                                                                             -
 -------------------------------------------------------------------------------
 SUBROUTINE                       CALLS  ASD         SELF TIME        TOTAL TIME
                                MAXIMUM       AVERAGE  MAXIMUM  AVERAGE  MAXIMUM
 CP2K                                 1  1.0    0.017    0.020  357.402  357.409
 qs_forces                            1  2.0    0.000    0.000  356.802  356.808
 qs_energies                          1  3.0    0.000    0.000  353.749  353.755
 scf_post_calculation_gpw             1  4.0    0.000    0.000  230.560  230.564
 get_localization_info                1  5.0    0.000    0.000  230.149  230.155
 qs_loc_driver                        1  6.0    0.000    0.000  230.149  230.155
 optimize_loc_berry                   1  7.0    0.018    0.019  230.141  230.146
 jacobi_rot_para                      1  8.0  198.057  206.340  229.872  229.877
 scf_env_do_scf                       1  4.0    0.000    0.000  121.266  121.277
 scf_env_do_scf_inner_loop           34  5.0    0.002    0.006  121.266  121.277
 rebuild_ks_matrix                   35  6.9    0.000    0.000   66.827   66.837
 qs_ks_build_kohn_sham_matrix        35  7.9    0.004    0.005   66.827   66.837
 qs_ks_update_qs_env                 34  6.0    0.000    0.000   64.655   64.665
 pw_transfer                        769 10.4    0.039    0.044   36.127   36.528
 fft_wrap_pw1pw2                    699 11.4    0.006    0.007   35.704   36.100
 fft_wrap_pw1pw2_400                419 12.4    3.095    3.220   34.639   35.057
 qs_vxc_create                       35  8.9    0.001    0.001   33.530   33.615
 xc_vxc_pw_create                    35  9.9    0.465    0.555   33.529   33.613
 qs_rho_update_rho                   35  6.0    0.000    0.000   32.957   32.964
 calculate_rho_elec                  35  7.0   22.182   22.447   32.957   32.963
 mp_allgather_d23                 53971  9.0   17.326   30.224   17.326   30.224
 sum_up_and_integrate                35  8.9    0.094    0.095   28.569   28.577
 integrate_v_rspace                  35  9.9   20.498   20.967   28.476   28.483
 fft3d_ps                           699 13.4   17.552   17.692   26.461   26.930
 xc_rho_set_and_dset_create          35 10.9    0.166    0.176   20.039   20.743
 mp_sendrecv_zm3                  53971  9.0   11.767   15.553   11.767   15.553
 qs_scf_new_mos                      34  6.0    0.001    0.001   14.698   14.718
 eigensolver                         34  7.0    0.002    0.003   13.671   13.683
 density_rs2pw                       35  8.0    0.002    0.002    9.969   10.442
 xc_functional_eval                  35 11.9    0.000    0.000    9.336   10.052
 pbe_lda_eval                        35 12.9    9.335   10.051    9.335   10.051
 cp_fm_diag_elpa                     34  8.0    0.000    0.000    9.985    9.990
 cp_fm_diag_elpa_base                34  9.0    9.664    9.666    9.985    9.990
 gspace_mixing                       33  6.0    0.112    0.115    9.825    9.825
 rs_pw_transfer                     354 10.4    0.004    0.004    7.474    7.908
 potential_pw2rs                     35 10.9    0.010    0.011    7.257    7.261
 -------------------------------------------------------------------------------

 The number of warnings for this run is : 2
 
 -------------------------------------------------------------------------------
  **** **** ******  **  PROGRAM ENDED AT                 2024-12-23 18:11:45.659
 ***** ** ***  *** **   PROGRAM RAN ON                                   c53-019
 **    ****   ******    PROGRAM RAN BY                                     jxzhu
 ***** **    ** ** **   PROGRAM PROCESS ID                                224918
  **** **  *******  **  PROGRAM STOPPED IN /data/jxzhu/tmp_test/ai2-kit_wannier_
                                           ut/sorted
