     974
 Particles+Wannier centers. Iteration:1_0
 Cl        -4.8232390000       -3.2427200000        0.6571340000
  H        -0.8167320000       -1.8624770000       -5.8003140000
  H        -2.2950590000       -2.1411990000       -5.4890240000
  H        -4.7733000000       -5.2423840000       -6.9987910000
  H        -6.1490110000       -5.9992090000       -6.6877020000
  H        -2.8170610000        4.6761200000       -3.1505550000
  H        -2.8910760000        3.9008580000       -4.4714540000
  H        -3.6846010000       -6.7596860000        2.7673670000
  H        -2.8473490000       -5.3215930000        2.8588690000
  H         3.9497890000        7.0977040000        7.3510390000
  H         2.5691340000        7.7302370000        6.9021780000
  H        -2.9340480000        1.8267280000       -3.0767940000
  H        -3.6297900000        1.1146840000       -1.8782350000
  H         1.9429100000       -0.4224210000        7.5991800000
  H         1.2687580000       -1.7375750000        7.7632220000
  H         1.1914710000       -7.4211470000       -5.7049940000
  H         0.6441080000        7.3618040000       -6.4512650000
  H         6.5225980000       -0.6004090000        3.3640850000
  H         6.1947750000       -1.1501570000        4.7194040000
  H         4.4724620000       -0.5278160000        7.3229930000
  H         4.6968000000       -1.9828310000        6.7750090000
  H         4.7192260000       -7.4652480000       -6.5045580000
  H         5.5808720000       -7.4461660000       -5.1604740000
  H         6.8270920000       -0.6941290000        7.4794830000
  H        -7.7285610000       -1.0757590000        7.9208910000
  H        -0.4488010000       -4.7236920000        5.9934610000
  H         0.5711180000       -5.9322360000        5.7448530000
  H         1.4179570000       -2.4484200000       -5.4478530000
  H         1.0851050000       -1.5517460000       -4.1085920000
  H        -7.1829250000       -5.1767190000        0.5583320000
  H        -7.3583880000       -6.6563540000        0.0637190000
  H         7.2402210000        5.1580220000        4.3630220000
  H         5.9709950000        4.4087420000        4.8777380000
  H        -0.6218430000        1.5656990000       -4.0954820000
  H         0.4248660000        0.7340170000       -4.8661770000
  H        -3.4206610000        5.8206080000        4.9200550000
  H        -3.2984600000        4.6472530000        4.0301710000
  H        -5.4232610000        6.5553290000       -2.3978560000
  H        -6.5393440000        5.7721040000       -1.7770490000
  H         7.9777220000        0.2098970000        1.3133180000
  H        -6.7788670000        0.7700610000        1.9784040000
  H         5.8843750000       -3.8346010000        7.4418990000
  H         5.3090340000       -3.4581500000       -7.1799850000
  H        -0.3556750000       -1.6362160000       -2.3651070000
  H         0.2647280000       -0.1247540000       -2.6090250000
  H        -1.6471620000       -2.2709130000        4.9096600000
  H        -0.2437190000       -1.8145780000        5.2125790000
  H         0.4202100000       -7.6263760000        7.8214070000
  H         0.1591540000        7.2875800000        6.7330790000
  H         0.8112780000        3.3545800000       -3.8207860000
  H        -0.5224570000        4.1043640000       -4.1801490000
  H         1.0604590000        5.3491150000       -5.7426410000
  H         0.5281230000        5.2032730000       -7.1819050000
  H         1.5488580000       -2.9489000000        0.4915270000
  H         0.7428130000       -2.0887260000       -0.5400180000
  H        -3.2118640000       -7.5232380000       -0.2354350000
  H        -2.6306210000       -6.1327810000        0.0782500000
  H         7.9224520000       -5.9507530000       -7.2741210000
  H         7.6737320000       -6.6468990000       -5.7707360000
  H        -4.9675840000        3.8422130000       -1.9879980000
  H        -4.8016460000        2.8294060000       -0.9437740000
  H        -7.9997020000        1.2655370000       -2.8538880000
  H        -6.6424500000        0.9832010000       -2.1348410000
  H         7.4071150000        1.2995700000       -7.1979810000
  H         7.7457230000        2.6348150000       -6.6692010000
  H        -2.5369710000        1.3971440000        7.5612380000
  H        -2.7767400000        1.2571820000        6.1455400000
  H        -7.8267630000       -3.5834160000       -7.8971660000
  H        -7.4091090000       -3.2641620000        6.5967810000
  H        -3.4834880000       -3.0907800000       -7.6202790000
  H        -4.1453610000       -3.8603020000        7.2081760000
  H        -3.8371630000        5.2284490000       -6.3331450000
  H        -2.5350590000        4.5329960000       -6.8963660000
  H        -1.8123310000       -3.6738240000       -1.6835660000
  H        -1.1388950000       -3.6782790000       -3.1188690000
  H        -5.2529320000        4.5035720000        2.5012690000
  H        -4.9292850000        3.0154040000        2.9632710000
  H         0.4604330000       -5.8245320000        3.1723210000
  H        -0.3615150000       -5.1969150000        1.9254700000
  H        -4.1099630000       -1.4009500000       -3.9681790000
  H        -3.1664660000       -2.6135800000       -3.4182950000
  H         3.7163940000       -4.7651390000        7.2246520000
  H         3.3929090000       -6.2242330000        6.9842210000
  H         1.5848460000       -4.0745210000       -7.8018960000
  H         0.2636920000       -3.5889590000       -7.1398980000
  H        -5.8052870000       -4.5981660000       -3.7879650000
  H        -4.8955090000       -3.4784870000       -4.3234280000
  H        -1.2413640000        5.3834340000        5.2568590000
  H         0.2638230000        5.0055480000        5.4221190000
  H         2.9036620000       -4.2945860000       -2.2871620000
  H         1.5502290000       -4.8211410000       -1.9127230000
  H        -3.8136790000       -7.3598880000       -2.3506230000
  H        -2.8107920000       -7.8816700000       -3.3590580000
  H        -7.4519820000        7.7655500000       -1.5577710000
  H         7.2254740000       -7.5415000000       -1.5650030000
  H         7.3812350000        0.2307180000       -5.2645280000
  H         7.6191910000       -1.2087720000       -5.5234650000
  H        -6.2589260000       -7.2244640000        7.6648290000
  H        -6.4386140000        7.6938580000        6.6160260000
  H        -3.1026090000        5.4361020000       -0.4292350000
  H        -3.0952260000        3.8917760000       -0.5540870000
  H         3.4737070000       -7.8571490000        1.2628930000
  H         3.4698570000       -7.2549800000        2.7066600000
  H         3.0321720000       -5.3985650000        4.7622870000
  H         4.0056200000       -4.5168970000        3.7969300000
  H        -6.6074020000       -3.3041150000       -5.8742900000
  H        -7.8783240000       -3.9343070000       -5.9417520000
  H         6.5844520000       -4.4286670000        2.9926350000
  H         6.6231000000       -3.8424470000        1.4742370000
  H        -2.4646980000       -5.9736880000       -4.6733850000
  H        -3.1487210000       -4.6770690000       -4.8795370000
  H        -3.1773940000       -5.3813550000        5.9216510000
  H        -4.6183770000       -5.0068620000        5.4664290000
  H         0.2272190000        6.9545800000       -0.0248420000
  H         0.2254800000        7.4035160000        1.4281580000
  H        -7.1363870000       -5.9458760000       -2.3409450000
  H        -6.1867500000       -5.1944610000       -1.4481180000
  H        -1.6620980000        2.1959080000       -0.6400650000
  H        -0.1231650000        2.5085160000       -0.7017890000
  H        -7.0589940000        2.9682500000        7.2658130000
  H        -7.4581850000        3.8047980000        6.0560790000
  H        -5.4368750000        1.1754650000       -7.5552780000
  H        -4.7127760000        2.4748720000       -7.2933870000
  H        -0.6875850000       -6.1986760000       -7.1850100000
  H        -1.3851890000       -5.1178980000       -6.5341250000
  H         1.0605550000        2.1338250000        3.2981310000
  H         0.9284800000        0.7270740000        2.5397790000
  H        -7.2700320000       -1.9878440000        4.6789950000
  H        -6.3676210000       -3.2698410000        4.4999490000
  H         2.8294840000        0.8730780000        4.1027960000
  H         3.6009210000       -0.0444790000        5.0551840000
  H        -5.0889770000       -1.8676780000       -7.9325130000
  H        -5.3619240000       -1.0935850000       -6.6165940000
  H        -3.4492240000       -0.8088160000        0.7798430000
  H        -2.1467750000       -0.1024260000        1.2089000000
  H        -0.6775280000       -3.5962000000        0.7066740000
  H        -2.0260960000       -3.6536530000        1.6171440000
  H         4.9503450000        1.1393500000        3.7756060000
  H         4.9609640000        0.5397880000        2.3228310000
  H         6.3822440000        7.7279600000        4.6346020000
  H         5.1340740000       -7.6303600000        4.8732030000
  H         5.4686300000       -1.0376800000       -2.1171230000
  H         6.9849340000       -0.6417740000       -2.0558670000
  H         3.2250130000        4.7911180000       -0.1784150000
  H         2.3908200000        5.9602000000        0.5100390000
  H         5.1548470000        0.0275600000       -4.4444900000
  H         3.8493550000       -0.0156220000       -3.5599470000
  H         3.0598110000        5.5389590000        4.2576900000
  H         2.8777210000        7.1200280000        4.3474780000
  H         6.5656310000        3.3684630000       -3.6207710000
  H         7.8271930000        4.2114600000       -3.9479050000
  H         5.9027170000        6.0083910000       -7.6528550000
  H         4.7411380000        5.8875660000       -6.6103540000
  H        -5.2838910000        0.8381120000        3.7862660000
  H        -4.1902770000        0.5503630000        2.7042240000
  H         6.1568530000       -5.2949030000        5.0844680000
  H         7.0044150000       -4.0980630000        5.5392160000
  H        -7.6197050000        6.6960900000       -7.9268870000
  H        -7.9629070000        5.2186460000        7.7206690000
  H        -4.1417960000        5.0587950000        7.3049840000
  H        -3.7770770000        6.4306200000        7.0891080000
  H         3.8709970000        3.0906490000       -2.8461770000
  H         4.1734570000        2.5119560000       -4.3470080000
  H         1.6840810000       -5.0914140000        1.4333230000
  H         3.0844710000       -4.2785130000        1.6675040000
  H        -1.3916170000       -0.1912400000       -6.7437510000
  H        -0.3778340000        0.6856720000       -7.4335660000
  H        -5.9316540000       -6.3549970000        4.3525230000
  H        -6.7753290000       -6.0228950000        5.6766750000
  H         2.9012770000       -6.9143460000       -2.7880170000
  H         2.1848160000       -7.0707910000       -1.3285710000
  H        -4.7153020000        7.6498030000       -4.4696110000
  H        -5.2472790000        7.9357640000       -5.9144310000
  H        -5.8390360000        2.5011520000       -3.4550870000
  H        -6.2079240000        3.1963580000       -4.7252240000
  H        -0.7733640000        7.3495750000       -3.1252220000
  H        -0.4460410000       -7.6883160000       -4.2031800000
  H         4.0719490000       -4.7814520000       -0.2483170000
  H         5.3367920000       -3.9881810000       -0.1305690000
  H         4.8603970000       -2.3626120000        3.5892870000
  H         3.2810220000       -2.5103210000        3.8947160000
  H         6.0973140000        1.3313250000       -0.5508460000
  H         5.1230780000        2.7198240000       -0.4852730000
  H        -0.1930440000       -6.2698970000       -0.3905740000
  H        -0.2099030000       -6.7678820000       -1.9037130000
  H         1.6309400000       -1.9546390000        5.5791440000
  H         1.5626520000       -3.3754270000        5.2122040000
  H         3.2662510000       -6.8749940000       -4.9970960000
  H         2.3666710000       -5.7242520000       -4.3186440000
  H         5.8456720000        7.1878960000       -0.5249050000
  H         4.9424500000       -7.6024900000       -0.9926790000
  H         7.6259550000       -7.8881000000       -3.6761090000
  H         7.5879490000        7.2352270000       -4.8433400000
  H         3.3492100000        0.3162360000       -6.7004940000
  H         3.3746940000        1.5482580000       -7.7421930000
  H         5.0724910000        1.7507860000        5.7368460000
  H         5.6998640000        1.8870990000        7.2504860000
  H         2.4363190000       -1.3383130000       -1.8475280000
  H         3.6142970000       -0.9663920000       -0.9635050000
  H        -3.1162520000       -3.8401700000        4.5294400000
  H        -3.6157760000       -2.9845910000        3.2057570000
  H         7.9125860000       -2.2644430000        0.5589950000
  H         6.6672050000       -1.5522410000       -0.2739670000
  H         5.0138900000       -3.6280740000       -2.3895810000
  H         4.2288760000       -2.5286620000       -3.2389580000
  H         0.2041910000       -0.7695750000        0.9877350000
  H        -0.1468570000        0.7382270000        0.6898420000
  H        -6.2302460000        5.8731360000        5.3895060000
  H        -6.4635360000        6.2481180000        3.9332610000
  H        -7.3690420000        5.3821760000       -6.1109780000
  H        -6.6034100000        5.8018120000       -4.7533150000
  H         3.5786060000        5.8397470000       -4.1981590000
  H         4.3257760000        4.6527360000       -4.6216360000
  H         2.6837120000       -0.4997290000        1.2521340000
  H         3.5232170000       -1.5500600000        2.0554560000
  H         3.3092970000        3.6573790000        2.0155000000
  H         4.3537140000        2.6423020000        2.3764890000
  H        -2.1198950000       -6.8814280000        4.6448580000
  H        -0.9723380000       -7.3194600000        5.6460000000
  H         2.8147550000        6.8513030000       -2.4021820000
  H         2.2561210000        5.5096150000       -2.3623750000
  H         2.9065630000        3.0888250000        4.9926360000
  H         2.4384940000        3.6595540000        6.3782660000
  H         7.2319950000        2.5721200000        5.1726730000
  H        -7.3899230000        2.0049260000        4.9451360000
  H        -1.9190050000        6.4895980000        2.8416160000
  H        -1.5197780000       -7.9582310000        2.6586290000
  H        -0.9133370000        3.1336220000       -7.9338920000
  H        -0.9773180000        4.5297420000        7.1841540000
  H        -3.0643680000        7.3225180000        1.2045950000
  H        -4.5659600000        7.1859840000        1.0207010000
  H        -1.7797660000       -0.0357280000        4.7813350000
  H        -1.4676600000        1.3753610000        4.4485120000
  H         0.1998440000        5.2964080000       -2.8546860000
  H        -0.9366360000        5.2313310000       -1.8150560000
  H         5.3270680000       -3.8503540000       -4.8952700000
  H         5.3606250000       -5.0883880000       -5.7856420000
  H        -6.5000670000       -1.0977680000       -3.3221000000
  H        -6.0263210000        0.0699450000       -4.2607870000
  H        -2.9056190000        1.4314880000       -5.8495950000
  H        -4.1723470000        2.1286200000       -5.1477170000
  H         4.7385470000        5.3642850000       -1.9350900000
  H         6.2558190000        5.4658600000       -2.2543150000
  H        -3.5978190000        1.6038620000        0.5759920000
  H        -3.9879110000        2.9666850000        1.3629020000
  H         0.3309780000        5.0618550000        2.0810670000
  H        -0.2854540000        3.7424740000        1.8089550000
  H        -5.3965380000        1.3927790000        6.0453440000
  H        -6.0768300000       -0.0315320000        6.2772380000
  H        -6.5082780000       -2.3491880000       -1.8055130000
  H        -7.5423230000       -3.1350160000       -2.4906710000
  H        -5.7463140000       -6.7912660000        2.2516580000
  H        -5.9979410000        7.7457030000        2.6719860000
  H         2.9325990000        3.9001210000       -6.9227310000
  H         4.1381010000        3.9172530000       -7.9111580000
  H        -3.1861770000        7.5805380000       -7.1086350000
  H        -2.4277850000       -7.6197010000        7.8721760000
  N         2.4269210000        2.5520000000       -0.7588680000
 Na         6.2969100000       -6.8205130000        1.6083210000
 Na         7.9286060000        3.3740630000       -0.8120540000
 Na         7.0800980000        2.8659870000        2.1942180000
 Na         4.9963830000        5.7670270000        2.1469850000
  O        -7.5137580000        6.7483610000        0.1056330000
  O        -7.9667500000        4.6036350000        1.5138470000
  O         7.2735530000        6.8884680000        2.3001410000
  O        -6.3796760000        6.3817760000        2.2290280000
  O         2.1303560000        2.0936740000        0.3655490000
  O         3.5343460000        3.2296140000       -0.9757280000
  O         1.6769120000        2.4823250000       -1.7497460000
  O        -4.0453590000       -2.6044960000       -0.4195420000
  O        -6.2818290000       -3.3194700000        0.3101960000
  O        -4.7280590000       -2.3939830000        1.8608450000
  O        -4.3426850000       -4.6344530000        0.9305590000
  O        -1.6670910000       -1.9662490000       -6.2338560000
  O        -5.2682310000       -6.0902390000       -7.1262880000
  O        -2.4287090000        4.6673990000       -4.0867940000
  O        -2.8295710000       -6.2829960000        2.6738060000
  O         3.5701480000        7.8291300000        6.7707100000
  O        -2.7742440000        1.4526690000       -2.2044250000
  O         1.3612440000       -0.9964850000        7.0911510000
  O         0.4276260000       -7.7050150000       -6.2688830000
  O         6.5385520000       -1.4359110000        3.8613330000
  O         4.9387070000       -1.0303630000        6.6233340000
  O         4.7613050000       -7.0628830000       -5.5628650000
  O         7.6973250000       -0.3734130000        7.7136750000
  O         0.2219600000       -5.1020070000        5.3862460000
  O         0.8764920000       -1.6742120000       -5.1141310000
  O        -7.5217510000       -6.0914380000        0.8048360000
  O         6.2353400000        5.0587470000        4.2208110000
  O         0.2326550000        1.0756680000       -4.0071350000
  O        -2.8109770000        5.4505430000        4.2385230000
  O        -6.0444510000        5.8371710000       -2.6071090000
  O        -7.4747690000        1.0356770000        1.2751240000
  O         5.0782180000       -3.6287710000        7.8863880000
  O         0.4793410000       -1.0337800000       -2.3054030000
  O        -1.1563270000       -1.6833520000        5.5457860000
  O         0.6694620000       -7.9271430000        6.8679550000
  O         0.4213360000        4.1973490000       -4.0761640000
  O         1.0988460000        5.7621490000       -6.6237600000
  O         0.7078540000       -2.4156690000        0.3903350000
  O        -2.6429550000       -6.7958240000       -0.6603610000
  O        -7.8675610000       -6.0276920000       -6.3374880000
  O        -5.4270330000        3.0229970000       -1.7128600000
  O        -7.6138060000        0.9922370000       -1.9712440000
  O         7.0767670000        1.9376130000       -6.5332230000
  O        -3.1614570000        1.7117550000        6.9034930000
  O         7.9360960000       -3.6596610000        7.2066600000
  O        -4.3042490000       -3.5076530000       -7.8738160000
  O        -3.5184700000        4.5439260000       -6.9504660000
  O        -1.5919250000       -3.0927010000       -2.4779090000
  O        -4.6358930000        3.9435000000        2.9748140000
  O         0.3888240000       -5.8746240000        2.2018810000
  O        -3.5108430000       -2.1731210000       -4.2335520000
  O         3.0041730000       -5.3578010000        6.7543140000
  O         1.2635830000       -3.4761660000       -7.1318640000
  O        -5.3559650000       -4.3565930000       -4.5974670000
  O        -0.4512880000        5.5324410000        5.8695720000
  O         1.9756460000       -4.3589560000       -2.6359840000
  O        -3.7960630000       -7.9724130000       -3.0960860000
  O        -7.9206110000       -7.4981790000       -1.9973580000
  O         7.3639130000       -0.6068350000       -4.7498150000
  O        -6.9498880000       -7.7458960000        7.1790600000
  O        -2.9340070000        4.7010330000       -1.1265390000
  O         4.0382980000       -7.6227420000        2.0120570000
  O         3.2908360000       -5.2295230000        3.8085210000
  O        -7.4875330000       -3.0462230000       -6.1979010000
  O         6.3554680000       -4.5984860000        2.0275310000
  O        -2.2802000000       -5.0577980000       -4.9960530000
  O        -3.7859460000       -4.6396450000        5.8716210000
  O         0.8552880000        7.2103870000        0.7024340000
  O        -6.7651250000       -5.0206610000       -2.2259450000
  O        -0.8043210000        2.1210500000       -0.1095810000
  O        -7.3514530000        3.9094050000        7.0089350000
  O        -5.6328180000        2.0708500000       -7.4737830000
  O        -1.1172030000       -5.3906130000       -7.5126140000
  O         1.3573770000        1.1969890000        3.3200120000
  O        -6.6444750000       -2.6279250000        5.1378150000
  O         3.5708360000        0.9089240000        4.7876310000
  O        -5.6296040000       -1.0922270000       -7.5146440000
  O        -3.0230970000        0.0513880000        0.7403790000
  O        -1.4757540000       -4.1146870000        0.9544970000
  O         5.5242690000        1.0106170000        2.9368890000
  O         6.0114860000       -7.4509020000        4.4750090000
  O         6.1694340000       -0.5717400000       -1.5834800000
  O         3.2887490000        5.6409550000        0.3174730000
  O         4.2222300000        0.2983760000       -4.4073130000
  O         2.6577190000        6.3237800000        3.8175850000
  O         7.3058020000        3.8121460000       -3.1821180000
  O         4.9886080000        6.3151570000       -7.4840000000
  O        -4.8939000000        1.1551820000        2.9332710000
  O         6.3825770000       -4.3478770000        4.8005200000
  O         7.9964430000        5.8550620000       -7.5754870000
  O        -4.2681530000        5.7252470000        6.6027550000
  O         4.3995760000        3.1903890000       -3.6666950000
  O         2.4198450000       -4.5053440000        0.9738960000
  O        -1.1969080000        0.7575400000       -6.9208190000
  O        -6.0352630000       -5.6720570000        5.0701960000
  O         3.0117710000       -7.2751870000       -1.8573880000
  O        -4.8835170000        7.1841990000       -5.3330430000
  O        -6.1347590000        2.2848550000       -4.3669160000
  O        -0.9354010000       -7.7568790000       -3.3759600000
  O         4.9359640000       -4.6917310000       -0.7203990000
  O         3.9403370000       -2.5426140000        3.1787940000
  O         5.9967060000        2.2856150000       -0.2146140000
  O         0.3518520000       -6.3360430000       -1.1895900000
  O         1.9296620000       -2.5303130000        4.8673050000
  O         2.4263030000       -6.6519170000       -4.5877840000
  O         5.7231420000       -7.8687310000       -0.4350630000
  O         7.2110870000       -7.9429410000       -4.5530150000
  O         3.4418960000        0.5898180000       -7.6285050000
  O         5.5748480000        2.3068720000        6.3596070000
  O         3.3584710000       -1.0796770000       -1.9363740000
  O        -2.8371330000       -3.4109150000        3.6659050000
  O         7.0489820000       -1.8245470000        0.6031380000
  O         5.0477830000       -3.0353570000       -3.1960110000
  O        -0.1537600000        0.0728440000        1.4074770000
  O        -6.9532520000        5.9108720000        4.7353430000
  O        -7.3386110000        5.2499850000       -5.1258830000
  O         3.9915180000        5.4746450000       -5.0285590000
  O         3.5369970000       -0.9167630000        1.2725940000
  O         4.1692600000        3.6246370000        2.4850720000
  O        -1.9566550000       -7.1768110000        5.5281810000
  O         3.0112890000        5.9316640000       -2.6894540000
  O         2.5061900000        3.8774580000        5.3932740000
  O        -8.0171710000        2.6976400000        4.6301960000
  O        -1.6653940000        7.2135970000        2.2033590000
  O        -0.8693870000        4.1254250000       -7.9236250000
  O        -3.7404780000        7.0963120000        0.4752420000
  O        -2.2377480000        0.8255840000        4.6214560000
  O        -0.1680250000        5.7768500000       -2.1140200000
  O         5.7387000000       -4.1594000000       -5.7465290000
  O        -5.7374590000       -0.5187320000       -3.5460200000
  O        -3.2102540000        1.9420810000       -5.0290990000
  O         5.6275200000        5.4154310000       -1.5190060000
  O        -3.9001790000        2.5460320000        0.5055770000
  O         0.3994360000        4.1589110000        2.3898770000
  O        -6.0122080000        0.7375260000        5.5865300000
  O        -7.2913200000       -2.1891420000       -2.3416490000
  O        -5.6055210000       -7.4362110000        2.9913410000
  O         3.2864200000        3.4126610000       -7.7288470000
  O        -2.4968460000        7.4656280000       -7.8586760000
  S        -7.7429120000        6.1316180000        1.5228500000
  X         7.9179379576        3.1811580420       -0.8968370065
  X         7.0177308493        2.6730989330        2.2561269816
  X         4.7899464633        5.7280591179        2.1240643811
  X         6.2721422236       -7.0294239450        1.5826995663
  X        -4.7562534231       -2.7580359324        1.3724048458
  X         2.3444321568        2.0891575636       -0.1261080535
  X         7.6091809568        6.5927702730        1.9749932445
  X         7.9371763347        3.3579060388       -0.6009647860
  X         7.0543183194        2.8841576468        1.9850234252
  X         7.7576722078        3.4855000414       -0.8671979453
  X         7.2839058985        2.8926502151        2.2426236901
  X        -7.9416973251        3.4726283203       -0.8820179055
  X         6.9636100851        3.0130723281        2.2929843904
  X         5.0357468114        5.9690668997        2.0963018554
  X         5.1074557327        5.6391630523        2.0196157274
  X         5.0523449672        5.7330352216        2.3479283474
  X         6.4851449173       -6.7624309333        1.5315115264
  X         6.2876210676       -6.7737600524        1.8148697356
  X         6.1433390429       -6.7179029352        1.5054324513
  X        -4.3831497456       -2.8879339391        0.0120548844
  X        -4.0802334329       -4.4922821124        0.9853529200
  X        -4.1831561622       -4.8259510740        5.6759889612
  X        -0.0638359316        4.1192279607       -4.1285501709
  X         7.6790806929       -7.5158067767       -1.7778325887
  X         2.9086804140        6.3987437551       -2.5465945365
  X         2.0456258496        2.3161325226       -1.4265934138
  X         3.5843783572        0.4169198553        4.9245909411
  X        -1.6895567925       -3.4008322781       -2.0743790788
  X        -5.6735149584       -3.2810787028        0.4480947186
  X        -0.2199082472        1.3270272482       -4.0685398803
  X         3.4100502084        1.0784243946       -7.6614643739
  X        -2.3796992478       -5.5409313478       -4.8310255343
  X         6.8878284913       -7.9615698448       -4.5364685308
  X        -0.7616662444        0.7213118758       -7.1913979742
  X        -3.1980955405        0.2786199355        0.9034152498
  X        -0.8509086848        7.8106837626       -3.2581695891
  X         7.6146120047        2.6166620797        4.9094799155
  X         2.8805755908       -1.2188464658       -1.8864989621
  X         5.1639226313       -7.2691233071       -5.3633328190
  X         1.7518781167       -2.9701648545        5.0497486020
  X        -6.5120120616       -2.9625601140        4.7861858950
  X         1.1335826190       -2.6632362922        0.4353037766
  X         5.6265419023        2.0621505514        6.8108823288
  X        -6.8745138027       -2.2732742281       -2.0585843055
  X        -6.3095177197        5.8095792713       -2.1678682780
  X        -1.7821324146        6.8646253371        2.5443752900
  X         3.1095367926        3.6587273795       -7.3096431800
  X        -1.8246907541        1.1206178987        4.5294598004
  X         1.4235662527       -3.8004859520       -7.4807903930
  X        -3.7042745946        2.0287286176       -5.1061629874
  X        -6.5878793762       -7.4913858624        7.4248078044
  X        -4.5211624986        0.8354733547        2.8284872034
  X         0.3872364679       -5.5359749323        5.5932750527
  X         4.8785063414       -4.5427735877       -1.0165226186
  X         6.3603658703       -1.2739526268        4.3142294669
  X        -6.9888089024       -4.8248896342       -2.1421277237
  X         3.7235451293        3.6451121423        2.2408532114
  X        -3.7494618721        2.0862132641        0.5597173947