conf.lmps (written by ASE) 

360 	 atoms 
4  atom types
0.0                   10.39  xlo xhi
0.0                   10.18  ylo yhi
0.0                   36.17  zlo zhi


Atoms 

     1   1             10.53791771              1.10333299      8.0183641600000009
     2   1      10.530455999999999      6.1981525099999999      8.0287191399999998
     3   1      5.3188992900000001      1.0588352400000001               8.0185084
     4   1      5.3651513299999998              6.17521187      7.8439497300000003
     5   1      7.9153259599999997              1.12941929             10.74465782
     6   1      7.8841092599999998      6.2117196300000002      10.695172579999999
     7   1      2.7311132100000002      1.1429525700000001             10.72871937
     8   1              2.77609072      6.2171272599999998             10.72326936
     9   4      10.522262700000001      3.6655785399999998      10.721594570000001
    10   4             10.52521437      8.7684694099999998             10.67004816
    11   4      5.3230265399999999      3.6613519600000002      10.719873570000001
    12   4      5.3248492199999999      8.7586794700000006              10.7218214
    13   4      7.9200752899999998      3.5999770299999998      8.0305656800000005
    14   4      7.9226716799999997      8.8183790900000005      7.9762815800000002
    15   4      2.7912176400000002      3.7324065800000001      7.9776130800000002
    16   4              2.65945118      8.6974761800000007      8.0521121099999995
    17   3      6.0457093799999999      2.3697907599999999      9.8054227800000007
    18   3      6.1044677900000002      7.5065472900000003      9.8507064199999999
    19   3     0.89730584000000002      2.3968842299999999      9.7978397499999996
    20   3     0.89156250999999997      7.4617886100000002      9.7876723899999991
    21   3      9.7277062300000008    -0.13257418000000001      9.7686807899999994
    22   3      9.7785256700000005              4.94547837      9.8152761099999992
    23   3      4.5413227000000003    -0.14161483999999999      9.8001761700000003
    24   3      4.5575217200000004      4.8906538399999997      9.8030181800000005
    25   3      7.1132403000000002   -0.093981110000000007      8.8965733700000005
    26   3      7.1536956500000004      4.9393930599999996      8.8518603599999999
    27   3      1.8330825500000001    -0.17187123000000001      8.9054252900000002
    28   3      1.9944187200000001      5.0278421599999996      8.8484048299999998
    29   3      8.7167170899999995      2.3350259699999998              8.93991793
    30   3      8.7065196900000004      7.4656313399999998      8.7796707900000008
    31   3      3.4647607800000002      2.3212443500000002      8.7806242999999995
    32   3      3.5509688599999998      7.4782288299999999      8.9019775600000006
    33   3              6.80761021               2.8510396      7.0900324599999998
    34   3      6.7193598400000001      8.2088731500000005      7.0282803100000004
    35   3      1.6196624500000001      3.1851076100000002      6.9738119200000002
    36   3              1.55041121      7.9419114999999998              7.09999599
    37   3      9.1354898200000001      4.2045446699999998      7.0452285400000001
    38   3              9.04473767      9.5713235500000007      7.0105973800000001
    39   3      4.0168194899999996      4.3976607000000003      7.0435670799999999
    40   3              3.72486038      9.5059141999999994      7.0380096099999996
    41   3              6.57918292      4.3530427899999999             11.60828714
    42   3              6.52764101      9.4574805600000005      11.655384460000001
    43   3              1.36903935      4.3435054500000003      11.621762070000001
    44   3      1.3472156099999999      9.4365559000000001      11.608730810000001
    45   3      9.2982096799999994      2.9989271300000002      11.653284190000001
    46   3      9.2910228700000008      8.1261198799999992      11.584247899999999
    47   3      4.0839188699999998      2.9885046499999999      11.640168129999999
    48   3              4.09121325      8.0866021900000007      11.649078749999999
    49   1      10.527272099999999               1.1223957      19.411730309999999
    50   1      10.552535020000001      6.2361090700000004             19.46428233
    51   1      5.3527825399999998              1.10815168      19.369642559999999
    52   1      5.2936967199999998      6.2506076400000001      19.403029449999998
    53   1      10.528302350000001      3.6956134700000001             16.45012766
    54   1      10.525524219999999      8.7713520000000003      16.448974459999999
    55   1              5.33537426      3.6922513299999999      16.461999649999999
    56   1      5.3334486999999999      8.7753439400000008      16.441559980000001
    57   1              7.92781556              3.70229499             13.68402414
    58   1               7.9241253      8.7816079499999997      13.686258219999999
    59   1              2.72841121      3.6890784999999999      13.692467000000001
    60   1      2.7315884700000002      8.7834032499999992             13.67810296
    61   1      7.9513270599999997              1.00708357             22.25711145
    62   1      8.0638293599999997      6.4223927200000004             22.28990825
    63   1                2.793472              1.16337442      22.090691329999999
    64   1      2.8303833900000002      6.2467505399999999      22.316339760000002
    65   4              10.5193344              1.15274308             13.66629687
    66   4             10.52080997              6.23845107      13.657960040000001
    67   4      5.3183814299999996      1.1503892899999999              13.6642753
    68   4               5.3285776      6.2365852000000004             13.66045877
    69   4      10.638232500000001      3.7197565300000002      22.097734429999999
    70   4              10.5931833      8.8002221400000007      22.155771949999998
    71   4      5.7731172700000002      3.8621599099999999      21.959406770000001
    72   4      5.3993892600000004      8.7742244100000004      22.054782509999999
    73   4      7.9138654900000001      3.6129842700000001      19.434039030000001
    74   4      7.9273127199999998      8.7554784699999999      19.363562000000002
    75   4              2.72709555      3.6671476900000002      19.413866129999999
    76   4      2.7425388800000001      8.7642597999999996      19.417912059999999
    77   4              7.92752181      1.1517338800000001      16.467960170000001
    78   4      7.9247636100000003      6.2397729399999999      16.474610420000001
    79   4      2.7319504499999998              1.15331223      16.469427929999998
    80   4      2.7416136600000001      6.2412222699999997      16.471512010000001
    81   3      9.7962272699999993      2.4371354300000001      14.576238269999999
    82   3      9.7960782200000001      7.5304392099999999             14.54846714
    83   3      4.5925994299999999      2.4261314399999998             14.58030688
    84   3      4.5937352499999999      7.5240236999999999             14.54734682
    85   3      6.1964955799999997              2.25828937      21.376841979999998
    86   3      6.1685214200000003      7.5217980200000003      21.156580760000001
    87   3     0.95863103000000005              2.35375785             21.24478585
    88   3     0.93708093000000003      7.4814264000000001      21.298878949999999
    89   3      6.0569732900000002      4.9584929300000002             14.56492166
    90   3      6.0582521600000003      10.047211130000001             14.54849684
    91   3     0.85974254000000006      4.9558147899999998             14.56534999
    92   3     0.86126780999999997      10.054033889999999              14.5564444
    93   3      9.7960908399999997    -0.13277852000000001      21.242815879999998
    94   3      9.7830885300000006      5.0307319899999996      21.298715120000001
    95   3      4.5640201400000002             -0.11114799      21.232717539999999
    96   3      4.6403805199999999      5.0960248500000001      21.438586310000002
    97   3      7.2185801200000004    -0.14954596000000001      20.298848599999999
    98   3      6.9995581299999996      4.6805363800000004      20.498757099999999
    99   3      2.0089486499999998    -0.13798004999999999      20.343048329999998
   100   3      2.0212053499999998              4.90093903      20.364730120000001
   101   3      8.6458271999999994      4.9660820399999999             15.56044153
   102   3      8.6537961699999997             10.05801404             15.55648012
   103   3      3.4649358399999999      4.9625516999999997      15.562867900000001
   104   3      3.4555459100000001      10.066105090000001             15.55117752
   105   3      8.7071344499999999      2.3714711999999998             20.29926193
   106   3              8.70339508              7.46977943      20.234296019999999
   107   3      3.5141388400000002      2.3728781799999998      20.277375899999999
   108   3              3.49784505      7.4730169599999998      20.290614260000002
   109   3      7.1970113299999996      2.4305287299999998             15.56638352
   110   3      7.1927039400000004      7.5202355900000004              15.5615422
   111   3              1.98917937      2.4464639799999999             15.58216949
   112   3              2.01181733      7.5246689099999999             15.57371109
   113   3      9.1703689100000005      1.8361205199999999             17.37844797
   114   3      9.1890204799999999      6.9114502900000003             17.35690936
   115   3      3.9792827599999998              1.82825696             17.38702284
   116   3      4.0033781599999996      6.9124401500000001             17.38731336
   117   3      6.6926775899999997      2.9392598099999998      18.481875259999999
   118   3      6.6776509900000001      8.0970115800000002      18.443051059999998
   119   3      1.4734985599999999      3.0233151999999999             18.48857465
   120   3              1.49168273      8.1247865899999994      18.501726470000001
   121   3      6.6704409099999999     0.45383031000000001      17.353387999999999
   122   3      6.6852680800000002      5.5505578699999996      17.389349200000002
   123   3              1.48928478     0.46573191000000003              17.3617344
   124   3               1.5036311      5.5628867599999996      17.367810840000001
   125   3      9.0838400499999992      4.4177446800000002      18.559386740000001
   126   3      9.1496895600000006      9.4503459000000003             18.44752372
   127   3      3.9718340900000002      4.3730066499999998      18.524003449999999
   128   3      3.9661702299999999      9.4462532400000008             18.48734962
   129   3      6.7683722099999999      4.3658272699999996      23.107841489999998
   130   3      6.6155516499999996      9.4416075100000008      22.983717479999999
   131   3      1.4737628899999999      4.3469072200000003              23.0342108
   132   3      1.3624106600000001      9.4994179200000008      23.109725539999999
   133   3      9.2669284199999993     0.46838819999999998      12.772930130000001
   134   3      9.2738563500000009      5.5662529899999997      12.747176469999999
   135   3      4.0645594699999998     0.47050520000000001      12.756975300000001
   136   3      4.0916948700000004      5.5388906499999999      12.751551600000001
   137   3      9.5446210600000008      3.0900811500000001      23.160732750000001
   138   3      9.3678860799999999      8.1374601099999992             23.08729868
   139   3      4.4819001800000002              2.90747643      22.902216679999999
   140   3      4.2709853300000002      8.0756971800000006      23.043676430000001
   141   3      6.5568798299999997              1.84085356      12.761019470000001
   142   3      6.5738225999999997      6.9038698199999997             12.74409979
   143   3               1.3743033              1.82296372             12.74548081
   144   3              1.37654787              6.90776374      12.748630479999999
   145   3      6.8753804599999997      1.4261501000000001      24.548445359999999
   146   3              3.34378822     0.85421146000000003      27.193120109999999
   147   2      7.3338736100000004      2.0428788899999999             25.13982292
   148   2      6.8604905399999998     0.55761583000000003             24.98385197
   149   2      3.7008275199999998              1.69604059             27.53049309
   150   2      3.6228819900000002     0.65800740000000002              26.2787331
   151   3      1.6237662399999999      2.1074631400000001      24.464525349999999
   152   3      7.4091513600000001             -1.08851199      25.917382669999999
   153   2                2.157791      2.0036165800000001      25.256340760000001
   154   2              1.58778189      3.0683134299999999             24.28530087
   155   2      8.3381907599999998     -1.3034768800000001      25.783306750000001
   156   2      7.2375816799999999     -1.2361835699999999      26.865185390000001
   157   3      8.8200127100000003      2.9229554100000001      25.897582209999999
   158   3      7.5743115400000001      5.2191061999999997             26.29355129
   159   2      8.3194014099999993      3.7712349399999998      26.010160190000001
   160   2      9.2961853300000001      3.0105394699999999             25.05689396
   161   2      8.3335314900000004              5.66445592      26.725954049999999
   162   2      6.8764550900000003      5.0917365099999996             26.97005798
   163   3              3.58891187      6.3983884099999999             27.31403843
   164   3     0.91580881000000003   -0.016542520000000002             28.00486167
   165   2      4.4572415799999998      5.9933327800000002      27.519424570000002
   166   2              3.65861868      7.3287329000000003      27.594159080000001
   167   2              0.33458767     0.76036760000000003             28.13835302
   168   2      1.7805144799999999     0.35271954999999999      27.738995169999999
   169   3      6.6897513100000001      6.8519548500000003             24.38009718
   170   3              4.16615717      5.6303908299999996      24.380546410000001
   171   2      6.7805270999999996      7.7519019800000004             24.74860614
   172   2              7.06653237              6.23495081      25.059625570000001
   173   2      3.8074592699999998      5.9213813100000001      25.229740719999999
   174   2      5.0306593900000003      6.0817637099999997             24.30619746
   175   3     0.17995451000000001      8.5765904699999993      25.930762260000002
   176   3      1.3746824900000001      6.6746210699999997      24.441783350000001
   177   2     0.48236537000000002      9.1527836600000008             26.66525094
   178   2   -0.091680750000000005      9.1903851499999991             25.22021427
   179   2      1.5343478699999999      5.9465664399999998      25.096226560000002
   180   2             11.53969835      7.4750713700000002      24.958737410000001
   181   3      5.7080596300000002     0.66023684000000005      5.2685099700000002
   182   3              1.82898071      2.8534751200000001      4.3991737899999999
   183   3      1.6511996200000001     0.47567776000000001              5.82244326
   184   3      8.4411103300000008     0.19519822000000001      4.4301514099999997
   185   3      7.2690022900000004              3.60017079      4.2122260300000001
   186   3      6.6263084799999996      7.8098331999999999      4.3968869699999997
   187   3     0.48303442000000002      3.6620552800000001              1.73651566
   188   3      8.3649447400000003      4.7504690900000002      2.0115408600000002
   189   3             10.44123488      8.0048075700000005             -0.20091718
   190   3      8.8421619800000002      7.1295465199999999      3.2060983300000001
   191   3              4.41916843      9.0932875200000005      3.4815533799999998
   192   3    -0.31043346999999999      5.9071511000000001      5.2829003700000001
   193   2      6.6446792800000001     0.61602634000000001      5.0218942100000001
   194   2      5.3890753900000004              1.56284494      5.0500994600000002
   195   2      1.8289075100000001      3.1977470100000001              5.32052893
   196   2      2.7467640499999999      2.9714885500000001      4.1020865999999998
   197   2      2.5404678500000002     0.21511922999999999      6.1424331600000004
   198   2      1.7656746299999999      1.2525371199999999      5.2429107899999998
   199   2      8.6395113000000006    -0.38995110999999999      5.1848803999999999
   200   2      8.8555158800000005              1.03519779      4.7118839000000001
   201   2              7.97138203      3.0568994699999998      4.5954830400000004
   202   2      7.6587587399999997      4.0071747999999996      3.4135617300000001
   203   2              5.76362738      8.0748593799999995      4.0200486499999997
   204   2      6.6448447899999996      8.1584572800000004      5.3115613699999997
   205   2     0.87682274000000004      4.3748442399999998      1.1852904099999999
   206   2      1.0475663799999999              3.59693686              2.51949836
   207   2      8.5591787499999992              5.65139646      2.3468453199999999
   208   2      9.2319563799999997      4.3057208899999999              1.91417405
   209   2      9.6898063600000004      7.9447707300000001    -0.82178167000000002
   210   2             10.15427884      8.5178536699999992     0.56402319999999995
   211   2      9.3096513699999992      7.8603887099999996      2.7759147300000002
   212   2      8.0034585200000006      7.4938866700000002      3.5780254399999998
   213   2              3.47236937              8.97694321      3.6822730699999999
   214   2      4.7495529999999997      9.8162636699999997      4.0425605999999998
   215   2    -0.94546443999999996      5.2443917600000001      5.5976940500000003
   216   2      9.6511558700000002      6.4187649599999999      4.5662768800000002
   217   3              4.59418609      3.0556371000000002             40.92673379
   218   3     0.85352757000000001      8.7688117600000002      30.447879199999999
   219   3      3.5016009299999999      8.8818971900000001      31.364293579999998
   220   3      9.8470563200000001      2.2368401800000002      28.421631770000001
   221   3      9.8045559400000002      6.2462655600000003             27.33674542
   222   3     0.53761212999999997      1.2857341099999999      36.499686660000002
   223   3      3.9442019899999998      3.0440237300000001              28.7362146
   224   3      7.8525303400000004     0.95208504999999999      29.937836799999999
   225   3      9.2402618800000003      10.102697579999999      32.070030989999999
   226   3      5.7104307500000004      5.0191137499999998      28.133071390000001
   227   3      1.3698543400000001              3.80411659      29.824628489999998
   228   3      4.5280844900000004      6.7294898500000002      32.950313459999997
   229   3  -0.0092967299999999996      6.2279417700000002      30.008167539999999
   230   3      2.7939218399999999      4.9610458199999998      34.137029519999999
   231   3      5.5214038800000003      2.2341049800000001             30.80107151
   232   3              1.95590756      2.9889270200000002      32.421756569999999
   233   3      6.4930242299999996      6.5747667500000002      30.208614350000001
   234   3      6.1493051899999998              7.47961454      35.030143750000001
   235   3      8.4785358100000003      5.9810902300000004      32.004047069999999
   236   3      5.6374175199999996      4.1493239500000003      32.609642059999999
   237   3             10.25985148              1.84404013      33.747160489999999
   238   3      8.3195370999999998      3.8115261199999999      33.682814710000002
   239   3      8.5810421800000007     -2.1724857200000001      33.896204709999999
   240   3      4.7419358599999999      3.3886984500000001      35.079477699999998
   241   3      3.9020680400000001              1.08412003             32.80859925
   242   3      4.1546986300000004      8.8250015099999999      28.609708000000001
   243   3      1.5551686499999999      5.6781843800000003      36.460144100000001
   244   3      6.9564696399999999      4.9568359500000003      35.818722209999997
   245   3      5.0042825300000002    -0.93913639000000004      36.905877070000003
   246   3      3.5287473199999999     0.93128549000000005      35.506177520000001
   247   3      10.197479299999999    -0.69704511000000002      38.488698509999999
   248   3      6.8816677100000003      8.8280126800000005             28.66008939
   249   2      6.9344420099999997      8.0513472700000008      29.248290359999999
   250   2      3.8130739199999999      8.8586636199999997             30.43876917
   251   2     0.39324063999999997     0.59049227999999998      37.161507200000003
   252   2      7.2670416199999996      9.5910866800000001      29.127082609999999
   253   2    0.092385960000000003              2.83688897      28.855436789999999
   254   2      9.9179757500000001      6.3361571100000003      28.305249589999999
   255   2      5.3851053899999997      3.3843285299999999      40.473049670000002
   256   2      3.0732618999999999      3.3563050300000001      29.036435740000002
   257   2     0.90883738999999997      9.2471371999999992             29.59897119
   258   2      9.9989524999999997      7.0984099699999996             26.91441185
   259   2      9.5960342500000007      2.6137051200000001             27.55919484
   260   2      8.4619939599999991      1.5045561999999999             29.41417375
   261   2               0.5828274      2.1239971799999999      37.002032989999996
   262   2      4.4121641599999997      2.6904925899999999      29.520427649999998
   263   2      9.9956089699999993              9.61497475      31.694433199999999
   264   2              4.20868967      7.4305926600000003      32.355008949999998
   265   2              8.75837398             10.45995282      31.297860119999999
   266   2              0.36724129               7.1145546      30.192890550000001
   267   2     0.94984239999999998      4.6838349099999999      29.889412190000002
   268   2      7.0840963800000001      1.4999315600000001             30.18568419
   269   2      9.7039927600000002      6.0853378300000003      30.700040609999999
   270   2      6.0532550399999998      5.4341694299999999             28.94864729
   271   2      5.1327485399999997      4.2685440200000002      28.376322850000001
   272   2              1.48498628      3.4885971900000001             30.74271182
   273   2      3.2791950600000002      5.6928601600000004      33.708747469999999
   274   2              1.18166971      2.5841546800000001      32.868252050000002
   275   2      5.0678802100000002      7.1392952300000001      33.654627849999997
   276   2      7.1175516500000002      6.3243055400000001      30.920885550000001
   277   2      5.5901781100000001      6.5450241199999999      30.559940709999999
   278   2      5.0511826400000004              1.62231404      31.382211229999999
   279   2              3.48734235      4.4214591499999996      34.572522659999997
   280   2      8.4286391599999995      5.1530905699999998      32.521946540000002
   281   2      5.6244258299999998              3.03555742      31.369389089999999
   282   2      5.7636198900000002      8.0295928300000003      35.737915000000001
   283   2      2.2059271599999999      3.7539224099999999      32.980282770000002
   284   2      5.3348088499999999      5.0697606899999998             32.56698634
   285   2              6.39970909      6.6143585700000003      35.414600499999999
   286   2      7.5804068300000003      3.2550691399999998      33.406481390000003
   287   2      3.2306460299999999              1.77440072      32.609967140000002
   288   2      8.5824537999999997      6.6905430700000004      32.667275439999997
   289   2      9.9799053400000002      1.1006178499999999             33.17605846
   290   2             10.64218917               1.4423792      34.539643750000003
   291   2      3.7352554200000001     0.86839686000000005      33.750119269999999
   292   2              8.72510999     -1.3738491100000001      33.364705960000002
   293   2              1.01397874      6.4813716000000001      36.364975979999997
   294   2      5.2847519199999997              3.79033474             33.44244243
   295   2      3.8574159899999998      9.6304569799999999      28.148349679999999
   296   2      1.9164718700000001              5.48317356      35.573662759999998
   297   2      5.4130038200000001              3.75883682      35.674740309999997
   298   2      9.0631556199999999      3.1938660300000001      33.805717100000003
   299   2      5.1312879300000001              8.86020772             28.57262746
   300   2      4.5235953499999999     -1.2738787899999999      37.676404689999998
   301   2              4.40203012      2.5640258600000001      35.467116840000003
   302   2      7.6716335500000001             -2.16828048      34.252838029999999
   303   2      7.5088386700000003      4.5920941199999996      35.100299880000001
   304   2      10.973668849999999    -0.96866803999999995      39.035592020000003
   305   2      3.9805696099999999              0.24010365      36.035047200000001
   306   2      2.5969725600000002               0.9295698      35.763612940000002
   307   2      4.4858326399999999              3.60933942      41.726457459999999
   308   2      5.6867953800000004    -0.39420444999999998      37.356521620000002
   309   2      7.5182657700000002      4.9308284200000001      36.615110180000002
   310   2      3.6964540499999998      9.7558138000000003      31.741385319999999
   311   2              9.58924457    -0.26999944999999997      39.115894249999997
   312   2      1.7506667300000001      8.7879565799999995      30.827035850000001
   313   3      9.3241809100000008      5.6233010099999996      24.185881559999999
   314   2      9.4189862699999995      4.6683138399999997      24.039978430000001
   315   2             10.22196958      6.0275701499999998      24.174853370000001
   316   3      3.4548886799999998             10.10044117             24.65329152
   317   2      2.5694373000000001      9.7583322700000004      24.434283239999999
   318   2      4.0295625700000004      9.3694736600000006      24.372840929999999
   319   3      9.6767527999999992     0.53988294000000003      24.499860630000001
   320   2      9.2052736500000005      1.0034640800000001      25.199500189999998
   321   2              0.10176578      1.0585335600000001      24.359839539999999
   322   3      9.6117764000000001              2.43858094      5.2221626099999998
   323   2      9.5322782700000008      3.1416230199999999      5.9189819300000002
   324   2             10.40237561      2.6323026399999998      4.7010073600000002
   325   3              1.75401695      8.6890960100000001      3.9591647800000001
   326   2      1.5554847999999999      9.1851020600000002              4.77522292
   327   2      1.8185071900000001      7.7371409699999996      4.1812012300000001
   328   3      4.2709697699999998      7.1239838500000001      5.8941194699999997
   329   2      4.1023805299999996      8.0757858099999993      6.0147107999999996
   330   2      3.4797609399999998      6.7014101300000002              5.48915197
   331   3      6.6892256699999999      5.5674439900000001               5.8906551
   332   2              6.55968967      6.2592176100000003      5.2104897399999999
   333   2      6.8569871400000002      4.7234080699999996              5.41913394
   334   3      2.2644422799999999      6.1042660499999997      4.4976233800000003
   335   2              1.40837474      5.7451078300000002      4.7861124400000001
   336   2      2.6313940900000001      5.5395733099999998      3.7846506799999999
   337   3      6.8188928100000004              1.35845466      33.679529600000002
   338   2      7.2554370099999996     0.74575248000000005      33.084617680000001
   339   2      5.8743772200000004      1.3160409900000001      33.487048629999997
   340   3      8.0793645200000004              1.43123614    0.060225239999999999
   341   2      9.0358888999999998      1.4228834100000001   -0.068695129999999993
   342   2      7.6485840400000003      1.4068642600000001      35.364399349999999
   343   3      5.4616951599999997      3.1550706499999999              1.80823373
   344   2      6.3068333900000004      3.5849615500000001      1.6627912600000001
   345   2      5.6946024399999997              2.25008506      2.0711164499999999
   346   3      3.7239208000000001      6.1110546000000001      30.260069909999999
   347   2      3.3969373300000001      6.1107183899999997      29.353164369999998
   348   2      3.1741557299999998      5.4971773700000002      30.745401229999999
   349   3      1.1797592100000001      9.4338483800000006      33.830554599999999
   350   2      1.9619947099999999      9.0558010099999997             33.43230896
   351   2     0.97843517999999996      8.9013347199999995      34.612883680000003
   352   3      3.1897388699999998      4.6843577600000001      2.4104810799999998
   353   2              2.90944329      5.1233027099999999              1.59712484
   354   2      4.0049074200000003      4.1867304499999998      2.2274925699999999
   355   3      6.6929431199999998      10.806622320000001      2.1202749399999998
   356   2      7.3453278500000003      11.076157220000001      1.4348136600000001
   357   2      7.1754936799999998             10.48882249      2.8922011599999999
   358   3      1.5529092600000001      4.8246288699999997             26.31756158
   359   2              2.24885534              5.23121115             26.85751664