 DBCSR| CPU Multiplication driver                                           XSMM
 DBCSR| Multrec recursion limit                                              512
 DBCSR| Multiplication stack size                                           1000
 DBCSR| Maximum elements for images                                    UNLIMITED
 DBCSR| Multiplicative factor virtual images                                   1
 DBCSR| Use multiplication densification                                       T
 DBCSR| Multiplication size stacks                                             3
 DBCSR| Number of 3D layers                                               SINGLE
 DBCSR| Use MPI memory allocation                                              T
 DBCSR| Use RMA algorithm                                                      F
 DBCSR| Use Communication thread                                               T
 DBCSR| Communication thread load                                             87


  **** **** ******  **  PROGRAM STARTED AT               2024-12-23 18:05:41.026
 ***** ** ***  *** **   PROGRAM STARTED ON                               c53-018
 **    ****   ******    PROGRAM STARTED BY                                 jxzhu
 ***** **    ** ** **   PROGRAM PROCESS ID                                 79417
  **** **  *******  **  PROGRAM STARTED IN /data/jxzhu/tmp_test/ai2-kit_wannier_
                                           ut/random

 CP2K| version string:                                          CP2K version 7.1
 CP2K| source code revision number:                                  git:e635599
 CP2K| cp2kflags: libint fftw3 libxc elpa parallel mpi3 scalapack xsmm spglib   
 CP2K| is freely available from                            https://www.cp2k.org/
 CP2K| Program compiled at                           Mon Mar 8 20:53:19 CST 2021
 CP2K| Program compiled on                                                 mgt01
 CP2K| Program compiled for                                                local
 CP2K| Data directory path                                    /data/jxzhu/basis/
 CP2K| Input file name                                                 input.inp

 GLOBAL| Force Environment number                                              1
 GLOBAL| Basis set file name                                        BASIS_MOLOPT
 GLOBAL| Potential file name                                      GTH_POTENTIALS
 GLOBAL| MM Potential file name                                     MM_POTENTIAL
 GLOBAL| Coordinate file name                                          coord.xyz
 GLOBAL| Method name                                                        CP2K
 GLOBAL| Project name                                                       cp2k
 GLOBAL| Preferred FFT library                                             FFTW3
 GLOBAL| Preferred diagonalization lib.                                     ELPA
 GLOBAL| Run type                                                   ENERGY_FORCE
 GLOBAL| All-to-all communication in single precision                          F
 GLOBAL| FFTs using library dependent lengths                                  F
 GLOBAL| Global print level                                               MEDIUM
 GLOBAL| MPI I/O enabled                                                       T
 GLOBAL| Total number of message passing processes                            32
 GLOBAL| Number of threads for this process                                    1
 GLOBAL| This output is from process                                           0
 GLOBAL| CPU model name                Intel(R) Xeon(R) Gold 6226R CPU @ 2.90GHz
 GLOBAL| CPUID                                                              1003
 GLOBAL| Compiled for CPUID                                                 1002
 HINT in environment.F:814 The compiler target flags (x86_avx2) used to build
   this binary cannot exploit all extensions of this CPU model (x86_avx512).
   Consider compiler target flags as part of FCFLAGS and CFLAGS (ARCH file).

 MEMORY| system memory details [Kb]
 MEMORY|                        rank 0           min           max       average
 MEMORY| MemTotal            196481368     196481368     196481368     196481368
 MEMORY| MemFree             183029788     183029788     183029788     183029788
 MEMORY| Buffers                     0             0             0             0
 MEMORY| Cached                 733748        733748        733748        733748
 MEMORY| Slab                   422632        422632        422632        422632
 MEMORY| SReclaimable           120200        120200        120200        120200
 MEMORY| MemLikelyFree       183883736     183883736     183883736     183883736


 *** Fundamental physical constants (SI units) ***

 *** Literature: B. J. Mohr and B. N. Taylor,
 ***             CODATA recommended values of the fundamental physical
 ***             constants: 2006, Web Version 5.1
 ***             http://physics.nist.gov/constants

 Speed of light in vacuum [m/s]                             2.99792458000000E+08
 Magnetic constant or permeability of vacuum [N/A**2]       1.25663706143592E-06
 Electric constant or permittivity of vacuum [F/m]          8.85418781762039E-12
 Planck constant (h) [J*s]                                  6.62606896000000E-34
 Planck constant (h-bar) [J*s]                              1.05457162825177E-34
 Elementary charge [C]                                      1.60217648700000E-19
 Electron mass [kg]                                         9.10938215000000E-31
 Electron g factor [ ]                                     -2.00231930436220E+00
 Proton mass [kg]                                           1.67262163700000E-27
 Fine-structure constant                                    7.29735253760000E-03
 Rydberg constant [1/m]                                     1.09737315685270E+07
 Avogadro constant [1/mol]                                  6.02214179000000E+23
 Boltzmann constant [J/K]                                   1.38065040000000E-23
 Atomic mass unit [kg]                                      1.66053878200000E-27
 Bohr radius [m]                                            5.29177208590000E-11

 *** Conversion factors ***

 [u] -> [a.u.]                                              1.82288848426455E+03
 [Angstrom] -> [Bohr] = [a.u.]                              1.88972613288564E+00
 [a.u.] = [Bohr] -> [Angstrom]                              5.29177208590000E-01
 [a.u.] -> [s]                                              2.41888432650478E-17
 [a.u.] -> [fs]                                             2.41888432650478E-02
 [a.u.] -> [J]                                              4.35974393937059E-18
 [a.u.] -> [N]                                              8.23872205491840E-08
 [a.u.] -> [K]                                              3.15774647902944E+05
 [a.u.] -> [kJ/mol]                                         2.62549961709828E+03
 [a.u.] -> [kcal/mol]                                       6.27509468713739E+02
 [a.u.] -> [Pa]                                             2.94210107994716E+13
 [a.u.] -> [bar]                                            2.94210107994716E+08
 [a.u.] -> [atm]                                            2.90362800883016E+08
 [a.u.] -> [eV]                                             2.72113838565563E+01
 [a.u.] -> [Hz]                                             6.57968392072181E+15
 [a.u.] -> [1/cm] (wave numbers)                            2.19474631370540E+05
 [a.u./Bohr**2] -> [1/cm]                                   5.14048714338585E+03
 

 CELL_TOP| Volume [angstrom^3]:                                         4130.657
 CELL_TOP| Vector a [angstrom    16.045     0.000     0.000    |a| =      16.045
 CELL_TOP| Vector b [angstrom     0.000    16.045     0.000    |b| =      16.045
 CELL_TOP| Vector c [angstrom     0.000     0.000    16.045    |c| =      16.045
 CELL_TOP| Angle (b,c), alpha [degree]:                                   90.000
 CELL_TOP| Angle (a,c), beta  [degree]:                                   90.000
 CELL_TOP| Angle (a,b), gamma [degree]:                                   90.000
 CELL_TOP| Numerically orthorhombic:                                         YES

 GENERATE|  Preliminary Number of Bonds generated:                             0
 GENERATE|  Achieved consistency in connectivity generation.

 CELL| Volume [angstrom^3]:                                             4130.657
 CELL| Vector a [angstrom]:      16.045     0.000     0.000    |a| =      16.045
 CELL| Vector b [angstrom]:       0.000    16.045     0.000    |b| =      16.045
 CELL| Vector c [angstrom]:       0.000     0.000    16.045    |c| =      16.045
 CELL| Angle (b,c), alpha [degree]:                                       90.000
 CELL| Angle (a,c), beta  [degree]:                                       90.000
 CELL| Angle (a,b), gamma [degree]:                                       90.000
 CELL| Numerically orthorhombic:                                             YES

 CELL_REF| Volume [angstrom^3]:                                         4130.657
 CELL_REF| Vector a [angstrom    16.045     0.000     0.000    |a| =      16.045
 CELL_REF| Vector b [angstrom     0.000    16.045     0.000    |b| =      16.045
 CELL_REF| Vector c [angstrom     0.000     0.000    16.045    |c| =      16.045
 CELL_REF| Angle (b,c), alpha [degree]:                                   90.000
 CELL_REF| Angle (a,c), beta  [degree]:                                   90.000
 CELL_REF| Angle (a,b), gamma [degree]:                                   90.000
 CELL_REF| Numerically orthorhombic:                                         YES

 *******************************************************************************
 *******************************************************************************
 **                                                                           **
 **     #####                         ##              ##                      **
 **    ##   ##            ##          ##              ##                      **
 **   ##     ##                       ##            ######                    **
 **   ##     ##  ##   ##  ##   #####  ##  ##   ####   ##    #####    #####    **
 **   ##     ##  ##   ##  ##  ##      ## ##   ##      ##   ##   ##  ##   ##   **
 **   ##  ## ##  ##   ##  ##  ##      ####     ###    ##   ######   ######    **
 **    ##  ###   ##   ##  ##  ##      ## ##      ##   ##   ##       ##        **
 **     #######   #####   ##   #####  ##  ##  ####    ##    #####   ##        **
 **           ##                                                    ##        **
 **                                                                           **
 **                                                ... make the atoms dance   **
 **                                                                           **
 **            Copyright (C) by CP2K developers group (2000 - 2019)           **
 **                                                                           **
 *******************************************************************************

 DFT| Spin restricted Kohn-Sham (RKS) calculation                            RKS
 DFT| Multiplicity                                                             1
 DFT| Number of spin states                                                    1
 DFT| Charge                                                                   0
 DFT| Self-interaction correction (SIC)                                       NO
 DFT| Cutoffs: density                                              1.000000E-10
 DFT|          gradient                                             1.000000E-10
 DFT|          tau                                                  1.000000E-10
 DFT|          cutoff_smoothing_range                               0.000000E+00
 DFT| XC density smoothing                                                  NONE
 DFT| XC derivatives                                                          PW
 FUNCTIONAL| ROUTINE=NEW
 FUNCTIONAL| PBE:
 FUNCTIONAL| J.P.Perdew, K.Burke, M.Ernzerhof, Phys. Rev. Letter, vol. 77, n 18,
 FUNCTIONAL|  pp. 3865-3868, (1996){spin unpolarized}                           
 vdW POTENTIAL|                                                   Pair Potential
 vdW POTENTIAL|          DFT-D3 (Version 3.1)
 vdW POTENTIAL|          Potential Form: S. Grimme et al, JCP 132: 154104 (2010)
 vdW POTENTIAL|          Zero Damping
 vdW POTENTIAL|          Cutoff Radius [Bohr]:                             20.00
 vdW POTENTIAL|          s6 Scaling Factor:                               1.0000
 vdW POTENTIAL|          sr6 Scaling Factor:                              1.2170
 vdW POTENTIAL|          s8 Scaling Factor:                               0.7220
 vdW POTENTIAL|          Cutoff for CN calculation:                   0.1000E-05

 QS| Method:                                                                 GPW
 QS| Density plane wave grid type                        NON-SPHERICAL FULLSPACE
 QS| Number of grid levels:                                                    5
 QS| Density cutoff [a.u.]:                                                400.0
 QS| Multi grid cutoff [a.u.]: 1) grid level                               400.0
 QS|                           2) grid level                               133.3
 QS|                           3) grid level                                44.4
 QS|                           4) grid level                                14.8
 QS|                           5) grid level                                 4.9
 QS| Grid level progression factor:                                          3.0
 QS| Relative density cutoff [a.u.]:                                        20.0
 QS| Consistent realspace mapping and integration 
 QS| Interaction thresholds: eps_pgf_orb:                                3.2E-07
 QS|                         eps_filter_matrix:                          0.0E+00
 QS|                         eps_core_charge:                            1.0E-15
 QS|                         eps_rho_gspace:                             1.0E-13
 QS|                         eps_rho_rspace:                             1.0E-13
 QS|                         eps_gvg_rspace:                             3.2E-07
 QS|                         eps_ppl:                                    1.0E-02
 QS|                         eps_ppnl:                                   3.2E-09


 ATOMIC KIND INFORMATION

  1. Atomic kind: H                                     Number of atoms:     256

     Orbital Basis Set                                        DZVP-MOLOPT-SR-GTH

       Number of orbital shell sets:                                           1
       Number of orbital shells:                                               3
       Number of primitive Cartesian functions:                                5
       Number of Cartesian basis functions:                                    5
       Number of spherical basis functions:                                    5
       Norm type:                                                              2

       Normalised Cartesian orbitals:

                        Set   Shell   Orbital            Exponent    Coefficient

                          1       1    2s               10.068468      -0.133023
                                                         2.680223      -0.177618
                                                         0.791502      -0.258419
                                                         0.239116      -0.107525
                                                         0.082193      -0.014019

                          1       2    3s               10.068468       0.344673
                                                         2.680223       1.819821
                                                         0.791502      -0.999069
                                                         0.239116       0.017430
                                                         0.082193       0.082660

                          1       3    3px              10.068468       0.155326
                                                         2.680223       0.367157
                                                         0.791502       0.311480
                                                         0.239116       0.080105
                                                         0.082193       0.033440
                          1       3    3py              10.068468       0.155326
                                                         2.680223       0.367157
                                                         0.791502       0.311480
                                                         0.239116       0.080105
                                                         0.082193       0.033440
                          1       3    3pz              10.068468       0.155326
                                                         2.680223       0.367157
                                                         0.791502       0.311480
                                                         0.239116       0.080105
                                                         0.082193       0.033440

     GTH Potential information for                                    GTH-PBE-q1

       Description:                       Goedecker-Teter-Hutter pseudopotential
                                           Goedecker et al., PRB 54, 1703 (1996)
                                          Hartwigsen et al., PRB 58, 3641 (1998)
                                                      Krack, TCA 114, 145 (2005)

       Gaussian exponent of the core charge distribution:              12.500000
       Electronic configuration (s p d ...):                                   1

       Parameters of the local part of the GTH pseudopotential:

                          rloc        C1          C2          C3          C4
                        0.200000   -4.178900    0.724463

  2. Atomic kind: O                                     Number of atoms:     139

     Orbital Basis Set                                        DZVP-MOLOPT-SR-GTH

       Number of orbital shell sets:                                           1
       Number of orbital shells:                                               5
       Number of primitive Cartesian functions:                                5
       Number of Cartesian basis functions:                                   14
       Number of spherical basis functions:                                   13
       Norm type:                                                              2

       Normalised Cartesian orbitals:

                        Set   Shell   Orbital            Exponent    Coefficient

                          1       1    2s               10.389228       0.396646
                                                         3.849621       0.208811
                                                         1.388401      -0.301641
                                                         0.496955      -0.274061
                                                         0.162492      -0.033677

                          1       2    3s               10.389228       0.303673
                                                         3.849621       0.240943
                                                         1.388401      -0.313066
                                                         0.496955      -0.043055
                                                         0.162492       0.213991

                          1       3    3px              10.389228      -1.530415
                                                         3.849621      -1.371928
                                                         1.388401      -0.761951
                                                         0.496955      -0.253695
                                                         0.162492      -0.035541
                          1       3    3py              10.389228      -1.530415
                                                         3.849621      -1.371928
                                                         1.388401      -0.761951
                                                         0.496955      -0.253695
                                                         0.162492      -0.035541
                          1       3    3pz              10.389228      -1.530415
                                                         3.849621      -1.371928
                                                         1.388401      -0.761951
                                                         0.496955      -0.253695
                                                         0.162492      -0.035541

                          1       4    4px              10.389228      -0.565392
                                                         3.849621      -0.038231
                                                         1.388401      -0.382373
                                                         0.496955       0.179070
                                                         0.162492       0.122714
                          1       4    4py              10.389228      -0.565392
                                                         3.849621      -0.038231
                                                         1.388401      -0.382373
                                                         0.496955       0.179070
                                                         0.162492       0.122714
                          1       4    4pz              10.389228      -0.565392
                                                         3.849621      -0.038231
                                                         1.388401      -0.382373
                                                         0.496955       0.179070
                                                         0.162492       0.122714

                          1       5    4dx2             10.389228       1.867377
                                                         3.849621       0.670994
                                                         1.388401       1.353441
                                                         0.496955       0.273538
                                                         0.162492       0.006620
                          1       5    4dxy             10.389228       3.234392
                                                         3.849621       1.162195
                                                         1.388401       2.344229
                                                         0.496955       0.473781
                                                         0.162492       0.011466
                          1       5    4dxz             10.389228       3.234392
                                                         3.849621       1.162195
                                                         1.388401       2.344229
                                                         0.496955       0.473781
                                                         0.162492       0.011466
                          1       5    4dy2             10.389228       1.867377
                                                         3.849621       0.670994
                                                         1.388401       1.353441
                                                         0.496955       0.273538
                                                         0.162492       0.006620
                          1       5    4dyz             10.389228       3.234392
                                                         3.849621       1.162195
                                                         1.388401       2.344229
                                                         0.496955       0.473781
                                                         0.162492       0.011466
                          1       5    4dz2             10.389228       1.867377
                                                         3.849621       0.670994
                                                         1.388401       1.353441
                                                         0.496955       0.273538
                                                         0.162492       0.006620

     GTH Potential information for                                    GTH-PBE-q6

       Description:                       Goedecker-Teter-Hutter pseudopotential
                                           Goedecker et al., PRB 54, 1703 (1996)
                                          Hartwigsen et al., PRB 58, 3641 (1998)
                                                      Krack, TCA 114, 145 (2005)

       Gaussian exponent of the core charge distribution:               8.360253
       Electronic configuration (s p d ...):                               2   4

       Parameters of the local part of the GTH pseudopotential:

                          rloc        C1          C2          C3          C4
                        0.244554  -16.667215    2.487311

       Parameters of the non-local part of the GTH pseudopotential:

                   l      r(l)      h(i,j,l)

                   0    0.220956   18.337458
                   1    0.211332

  3. Atomic kind: Na                                    Number of atoms:       4

     Orbital Basis Set                                        DZVP-MOLOPT-SR-GTH

       Number of orbital shell sets:                                           1
       Number of orbital shells:                                               5
       Number of primitive Cartesian functions:                                7
       Number of Cartesian basis functions:                                    9
       Number of spherical basis functions:                                    9
       Norm type:                                                              2

       Normalised Cartesian orbitals:

                        Set   Shell   Orbital            Exponent    Coefficient

                          1       1    2s               23.518801       0.288931
                                                        11.135656       0.787174
                                                         4.647814      -0.190850
                                                         1.866708      -0.573823
                                                         0.734684      -0.276866
                                                         0.275673      -0.024211
                                                         0.049895      -0.000019

                          1       2    3s               23.518801       0.039212
                                                        11.135656       0.138585
                                                         4.647814      -0.048916
                                                         1.866708      -0.102378
                                                         0.734684      -0.139633
                                                         0.275673       0.012767
                                                         0.049895       0.077569

                          1       3    4s               23.518801       0.303698
                                                        11.135656      -0.548845
                                                         4.647814       0.534441
                                                         1.866708      -0.220920
                                                         0.734684       0.980584
                                                         0.275673      -0.653367
                                                         0.049895       0.063703

                          1       4    3px              23.518801      -2.919466
                                                        11.135656      -2.855941
                                                         4.647814      -2.579491
                                                         1.866708      -1.208264
                                                         0.734684      -0.321406
                                                         0.275673      -0.035032
                                                         0.049895      -0.000067
                          1       4    3py              23.518801      -2.919466
                                                        11.135656      -2.855941
                                                         4.647814      -2.579491
                                                         1.866708      -1.208264
                                                         0.734684      -0.321406
                                                         0.275673      -0.035032
                                                         0.049895      -0.000067
                          1       4    3pz              23.518801      -2.919466
                                                        11.135656      -2.855941
                                                         4.647814      -2.579491
                                                         1.866708      -1.208264
                                                         0.734684      -0.321406
                                                         0.275673      -0.035032
                                                         0.049895      -0.000067

                          1       5    4px              23.518801      -0.381914
                                                        11.135656      -0.488169
                                                         4.647814      -0.407378
                                                         1.866708      -0.201739
                                                         0.734684      -0.078845
                                                         0.275673       0.043427
                                                         0.049895       0.031563
                          1       5    4py              23.518801      -0.381914
                                                        11.135656      -0.488169
                                                         4.647814      -0.407378
                                                         1.866708      -0.201739
                                                         0.734684      -0.078845
                                                         0.275673       0.043427
                                                         0.049895       0.031563
                          1       5    4pz              23.518801      -0.381914
                                                        11.135656      -0.488169
                                                         4.647814      -0.407378
                                                         1.866708      -0.201739
                                                         0.734684      -0.078845
                                                         0.275673       0.043427
                                                         0.049895       0.031563

     GTH Potential information for                                    GTH-PBE-q9

       Description:                       Goedecker-Teter-Hutter pseudopotential
                                           Goedecker et al., PRB 54, 1703 (1996)
                                          Hartwigsen et al., PRB 58, 3641 (1998)
                                                      Krack, TCA 114, 145 (2005)

       Gaussian exponent of the core charge distribution:               8.937631
       Electronic configuration (s p d ...):                               3   6

       Parameters of the local part of the GTH pseudopotential:

                          rloc        C1          C2          C3          C4
                        0.236523    0.295105   -0.913885

       Parameters of the non-local part of the GTH pseudopotential:

                   l      r(l)      h(i,j,l)

                   0    0.143560   34.601492
                   1    0.129932  -14.277462

  4. Atomic kind: Cl                                    Number of atoms:       1

     Orbital Basis Set                                        DZVP-MOLOPT-SR-GTH

       Number of orbital shell sets:                                           1
       Number of orbital shells:                                               5
       Number of primitive Cartesian functions:                                4
       Number of Cartesian basis functions:                                   14
       Number of spherical basis functions:                                   13
       Norm type:                                                              2

       Normalised Cartesian orbitals:

                        Set   Shell   Orbital            Exponent    Coefficient

                          1       1    2s                2.379078       0.403013
                                                         1.470718       0.018727
                                                         0.461213      -0.342539
                                                         0.150015      -0.058490

                          1       2    3s                2.379078       0.556232
                                                         1.470718       0.430620
                                                         0.461213      -0.745502
                                                         0.150015       0.311453

                          1       3    3px               2.379078       0.636316
                                                         1.470718      -0.580855
                                                         0.461213      -0.325785
                                                         0.150015      -0.051764
                          1       3    3py               2.379078       0.636316
                                                         1.470718      -0.580855
                                                         0.461213      -0.325785
                                                         0.150015      -0.051764
                          1       3    3pz               2.379078       0.636316
                                                         1.470718      -0.580855
                                                         0.461213      -0.325785
                                                         0.150015      -0.051764

                          1       4    4px               2.379078       0.838044
                                                         1.470718      -0.610657
                                                         0.461213      -0.295677
                                                         0.150015       0.171492
                          1       4    4py               2.379078       0.838044
                                                         1.470718      -0.610657
                                                         0.461213      -0.295677
                                                         0.150015       0.171492
                          1       4    4pz               2.379078       0.838044
                                                         1.470718      -0.610657
                                                         0.461213      -0.295677
                                                         0.150015       0.171492

                          1       5    4dx2              2.379078       0.509952
                                                         1.470718       0.891639
                                                         0.461213       0.295732
                                                         0.150015       0.008371
                          1       5    4dxy              2.379078       0.883263
                                                         1.470718       1.544364
                                                         0.461213       0.512223
                                                         0.150015       0.014498
                          1       5    4dxz              2.379078       0.883263
                                                         1.470718       1.544364
                                                         0.461213       0.512223
                                                         0.150015       0.014498
                          1       5    4dy2              2.379078       0.509952
                                                         1.470718       0.891639
                                                         0.461213       0.295732
                                                         0.150015       0.008371
                          1       5    4dyz              2.379078       0.883263
                                                         1.470718       1.544364
                                                         0.461213       0.512223
                                                         0.150015       0.014498
                          1       5    4dz2              2.379078       0.509952
                                                         1.470718       0.891639
                                                         0.461213       0.295732
                                                         0.150015       0.008371

     GTH Potential information for                                    GTH-PBE-q7

       Description:                       Goedecker-Teter-Hutter pseudopotential
                                           Goedecker et al., PRB 54, 1703 (1996)
                                          Hartwigsen et al., PRB 58, 3641 (1998)
                                                      Krack, TCA 114, 145 (2005)

       Gaussian exponent of the core charge distribution:               2.974420
       Electronic configuration (s p d ...):                               2   5

       Parameters of the local part of the GTH pseudopotential:

                          rloc        C1          C2          C3          C4
                        0.410000   -6.392082

       Parameters of the non-local part of the GTH pseudopotential:

                   l      r(l)      h(i,j,l)

                   0    0.339539   15.218990   -4.934523
                                   -4.934523    6.370442
                   1    0.378474    4.338775

  5. Atomic kind: S                                     Number of atoms:       1

     Orbital Basis Set                                        DZVP-MOLOPT-SR-GTH

       Number of orbital shell sets:                                           1
       Number of orbital shells:                                               5
       Number of primitive Cartesian functions:                                4
       Number of Cartesian basis functions:                                   14
       Number of spherical basis functions:                                   13
       Norm type:                                                              2

       Normalised Cartesian orbitals:

                        Set   Shell   Orbital            Exponent    Coefficient

                          1       1    2s                2.215855       0.308496
                                                         1.131471       0.138505
                                                         0.410168      -0.373736
                                                         0.140587      -0.040370

                          1       2    3s                2.215855      -0.329528
                                                         1.131471      -0.517509
                                                         0.410168       0.787368
                                                         0.140587      -0.322786

                          1       3    3px               2.215855       0.420434
                                                         1.131471      -0.319283
                                                         0.410168      -0.335323
                                                         0.140587      -0.030976
                          1       3    3py               2.215855       0.420434
                                                         1.131471      -0.319283
                                                         0.410168      -0.335323
                                                         0.140587      -0.030976
                          1       3    3pz               2.215855       0.420434
                                                         1.131471      -0.319283
                                                         0.410168      -0.335323
                                                         0.140587      -0.030976

                          1       4    4px               2.215855       0.241296
                                                         1.131471      -0.170582
                                                         0.410168      -0.186977
                                                         0.140587       0.153509
                          1       4    4py               2.215855       0.241296
                                                         1.131471      -0.170582
                                                         0.410168      -0.186977
                                                         0.140587       0.153509
                          1       4    4pz               2.215855       0.241296
                                                         1.131471      -0.170582
                                                         0.410168      -0.186977
                                                         0.140587       0.153509

                          1       5    4dx2              2.215855       0.573559
                                                         1.131471       0.544926
                                                         0.410168       0.228284
                                                         0.140587       0.008811
                          1       5    4dxy              2.215855       0.993434
                                                         1.131471       0.943840
                                                         0.410168       0.395400
                                                         0.140587       0.015260
                          1       5    4dxz              2.215855       0.993434
                                                         1.131471       0.943840
                                                         0.410168       0.395400
                                                         0.140587       0.015260
                          1       5    4dy2              2.215855       0.573559
                                                         1.131471       0.544926
                                                         0.410168       0.228284
                                                         0.140587       0.008811
                          1       5    4dyz              2.215855       0.993434
                                                         1.131471       0.943840
                                                         0.410168       0.395400
                                                         0.140587       0.015260
                          1       5    4dz2              2.215855       0.573559
                                                         1.131471       0.544926
                                                         0.410168       0.228284
                                                         0.140587       0.008811

     GTH Potential information for                                    GTH-PBE-q6

       Description:                       Goedecker-Teter-Hutter pseudopotential
                                           Goedecker et al., PRB 54, 1703 (1996)
                                          Hartwigsen et al., PRB 58, 3641 (1998)
                                                      Krack, TCA 114, 145 (2005)

       Gaussian exponent of the core charge distribution:               2.834467
       Electronic configuration (s p d ...):                               2   4

       Parameters of the local part of the GTH pseudopotential:

                          rloc        C1          C2          C3          C4
                        0.420000   -5.986260

       Parameters of the non-local part of the GTH pseudopotential:

                   l      r(l)      h(i,j,l)

                   0    0.364820   13.143544   -4.241830
                                   -4.241830    5.476180
                   1    0.409480    3.700891

  6. Atomic kind: N                                     Number of atoms:       1

     Orbital Basis Set                                        DZVP-MOLOPT-SR-GTH

       Number of orbital shell sets:                                           1
       Number of orbital shells:                                               5
       Number of primitive Cartesian functions:                                5
       Number of Cartesian basis functions:                                   14
       Number of spherical basis functions:                                   13
       Norm type:                                                              2

       Normalised Cartesian orbitals:

                        Set   Shell   Orbital            Exponent    Coefficient

                          1       1    2s                7.341988       0.360561
                                                         2.542637       0.139177
                                                         0.888575      -0.289383
                                                         0.333802      -0.182244
                                                         0.112012      -0.019197

                          1       2    3s                7.341988       0.282000
                                                         2.542637       0.177875
                                                         0.888575      -0.278381
                                                         0.333802       0.008577
                                                         0.112012       0.154176

                          1       3    3px               7.341988      -1.188719
                                                         2.542637      -0.973969
                                                         0.888575      -0.501079
                                                         0.333802      -0.144894
                                                         0.112012      -0.013986
                          1       3    3py               7.341988      -1.188719
                                                         2.542637      -0.973969
                                                         0.888575      -0.501079
                                                         0.333802      -0.144894
                                                         0.112012      -0.013986
                          1       3    3pz               7.341988      -1.188719
                                                         2.542637      -0.973969
                                                         0.888575      -0.501079
                                                         0.333802      -0.144894
                                                         0.112012      -0.013986

                          1       4    4px               7.341988      -0.094798
                                                         2.542637       0.050069
                                                         0.888575      -0.114797
                                                         0.333802       0.144793
                                                         0.112012       0.066710
                          1       4    4py               7.341988      -0.094798
                                                         2.542637       0.050069
                                                         0.888575      -0.114797
                                                         0.333802       0.144793
                                                         0.112012       0.066710
                          1       4    4pz               7.341988      -0.094798
                                                         2.542637       0.050069
                                                         0.888575      -0.114797
                                                         0.333802       0.144793
                                                         0.112012       0.066710

                          1       5    4dx2              7.341988       1.354688
                                                         2.542637       0.690378
                                                         0.888575       0.855359
                                                         0.333802       0.091746
                                                         0.112012       0.001253
                          1       5    4dxy              7.341988       2.346389
                                                         2.542637       1.195770
                                                         0.888575       1.481524
                                                         0.333802       0.158910
                                                         0.112012       0.002169
                          1       5    4dxz              7.341988       2.346389
                                                         2.542637       1.195770
                                                         0.888575       1.481524
                                                         0.333802       0.158910
                                                         0.112012       0.002169
                          1       5    4dy2              7.341988       1.354688
                                                         2.542637       0.690378
                                                         0.888575       0.855359
                                                         0.333802       0.091746
                                                         0.112012       0.001253
                          1       5    4dyz              7.341988       2.346389
                                                         2.542637       1.195770
                                                         0.888575       1.481524
                                                         0.333802       0.158910
                                                         0.112012       0.002169
                          1       5    4dz2              7.341988       1.354688
                                                         2.542637       0.690378
                                                         0.888575       0.855359
                                                         0.333802       0.091746
                                                         0.112012       0.001253

     GTH Potential information for                                    GTH-PBE-q5

       Description:                       Goedecker-Teter-Hutter pseudopotential
                                           Goedecker et al., PRB 54, 1703 (1996)
                                          Hartwigsen et al., PRB 58, 3641 (1998)
                                                      Krack, TCA 114, 145 (2005)

       Gaussian exponent of the core charge distribution:               6.208322
       Electronic configuration (s p d ...):                               2   3

       Parameters of the local part of the GTH pseudopotential:

                          rloc        C1          C2          C3          C4
                        0.283791  -12.415226    1.868096

       Parameters of the non-local part of the GTH pseudopotential:

                   l      r(l)      h(i,j,l)

                   0    0.255405   13.630263
                   1    0.245495


 MOLECULE KIND INFORMATION


 All atoms are their own molecule, skipping detailed information


 TOTAL NUMBERS AND MAXIMUM NUMBERS

  Total number of            - Atomic kinds:                                   6
                             - Atoms:                                        402
                             - Shell sets:                                   402
                             - Shells:                                      1498
                             - Primitive Cartesian functions:               2016
                             - Cartesian basis functions:                   3304
                             - Spherical basis functions:                   3162

  Maximum angular momentum of- Orbital basis functions:                        2
                             - Local part of the GTH pseudopotential:          2
                             - Non-local part of the GTH pseudopotential:      2


 MODULE QUICKSTEP:  ATOMIC COORDINATES IN angstrom

  Atom  Kind  Element       X           Y           Z          Z(eff)       Mass

       1     1 H    1   -4.145361   12.184698   -8.836824      1.00       1.0079
       2     1 H    1   -0.621843  -30.524301   11.949518      1.00       1.0079
       3     1 H    1  -11.973051   11.263548   -0.248317      1.00       1.0079
       4     2 O    8   10.032792    0.737526    5.586530      6.00      15.9994
       5     1 H    1  -16.422834   16.730672   -7.433566      1.00       1.0079
       6     1 H    1    0.199844   21.341408   -2.854686      1.00       1.0079
       7     1 H    1   -1.662098  -29.894092   15.404935      1.00       1.0079
       8     2 O    8    5.627520  -26.674569   -1.519006      6.00      15.9994
       9     2 O    8   11.702315   27.455547   16.975559      6.00      15.9994
      10     1 H    1   21.513630  -33.127680   29.972877      1.00       1.0079
      11     2 O    8   12.248937   24.117587   28.993914      6.00      15.9994
      12     1 H    1  -10.890153   16.072560   11.600510      1.00       1.0079
      13     2 O    8  -14.683756   15.048515  -24.998849      6.00      15.9994
      14     2 O    8   32.797854   13.629331   16.435335      6.00      15.9994
      15     2 O    8   -4.304249   12.537347   -7.873816      6.00      15.9994
      16     2 O    8   -3.210254   17.987081   11.015901      6.00      15.9994
      17     1 H    1    9.895989   10.045791   25.402298      1.00       1.0079
      18     2 O    8   -8.681087  -16.651835   27.340185      6.00      15.9994
      19     1 H    1   -5.252932  -11.541428    2.501269      1.00       1.0079
      20     1 H    1    3.614297   15.078608   -0.963505      1.00       1.0079
      21     2 O    8   15.891240  -32.017156   33.497477      6.00      15.9994
      22     1 H    1  -15.400892    7.361804    9.593735      1.00       1.0079
      23     2 O    8   46.469606   -8.831403    2.203359      6.00      15.9994
      24     2 O    8  -15.617374    8.339985    9.776117      6.00      15.9994
      25     1 H    1    2.932599    3.900121  -22.967731      1.00       1.0079
      26     1 H    1   -3.483488   12.954220   -7.620279      1.00       1.0079
      27     2 O    8   -7.513758    6.748361    0.105633      6.00      15.9994
      28     1 H    1  -21.884036    2.501152   28.634913      1.00       1.0079
      29     1 H    1  -15.624790   24.463624   23.866407      1.00       1.0079
      30     1 H    1   21.168078    2.719824   -0.485273      1.00       1.0079
      31     1 H    1  -23.414042   21.427176   -6.110978      1.00       1.0079
      32     1 H    1   27.899723   32.640363   34.794224      1.00       1.0079
      33     2 O    8    3.358471   14.965323   -1.936374      6.00      15.9994
      34     1 H    1    2.256121    5.509615   13.682625      1.00       1.0079
      35     1 H    1   14.659811   10.927102   25.555875      1.00       1.0079
      36     1 H    1   11.149491   12.566513   43.811572      1.00       1.0079
      37     1 H    1   13.508029    1.397144    7.561238      1.00       1.0079
      38     2 O    8   26.457182   34.160850    8.571217      6.00      15.9994
      39     1 H    1  -12.960529  -20.323513    1.667504      1.00       1.0079
      40     1 H    1   12.858823    7.580538   24.981365      1.00       1.0079
      41     2 O    8   45.200993    4.701033   14.918461      6.00      15.9994
      42     1 H    1   19.994789   23.142704   23.396039      1.00       1.0079
      43     1 H    1  -17.022318    4.529742    7.184154      1.00       1.0079
      44     1 H    1   31.412472   -3.596200   16.751674      1.00       1.0079
      45     1 H    1    7.587949    7.235227   11.201660      1.00       1.0079
      46     1 H    1   38.612598   15.444591    3.364085      1.00       1.0079
      47     1 H    1   25.722379  -19.314841    4.499949      1.00       1.0079
      48     1 H    1   16.375978   21.106855   18.126067      1.00       1.0079
      49     1 H    1   46.996105   -3.678279   12.926131      1.00       1.0079
      50     1 H    1   43.167416   19.887213   -1.987998      1.00       1.0079
      51     2 O    8   32.569341  -17.078780   13.739597      6.00      15.9994
      52     1 H    1   10.047059   23.790703    2.671986      1.00       1.0079
      53     1 H    1    3.600921   -0.044479    5.055184      1.00       1.0079
      54     1 H    1   53.148890   12.416926   -2.389581      1.00       1.0079
      55     1 H    1  -11.102550    8.442510  -17.037679      1.00       1.0079
      56     1 H    1   25.482598   28.785885   10.170710      1.00       1.0079
      57     1 H    1  -22.231750   10.850539   -1.448118      1.00       1.0079
      58     2 O    8    5.524269    1.010617   18.981889      6.00      15.9994
      59     1 H    1   -3.148721   27.412931   11.165463      1.00       1.0079
      60     1 H    1    1.085105   30.538254  -20.153592      1.00       1.0079
      61     1 H    1    8.425295   22.741090   40.208113      1.00       1.0079
      62     1 H    1   15.228268  -17.907477   -5.800314      1.00       1.0079
      63     2 O    8   13.402045    9.249176   15.384639      6.00      15.9994
      64     2 O    8    8.177439   10.017308    9.707512      6.00      15.9994
      65     1 H    1  -14.853529    8.623853   10.340006      1.00       1.0079
      66     2 O    8  -15.189712   23.255387    0.702434      6.00      15.9994
      67     2 O    8   29.260429   -6.282996  -13.371194      6.00      15.9994
      68     1 H    1   45.988225   -0.102426   17.253900      1.00       1.0079
      69     1 H    1  -10.684375   -5.088388  -37.875642      1.00       1.0079
      70     1 H    1    1.417957   29.641580  -21.492853      1.00       1.0079
      71     2 O    8   -0.168025   21.821850   -2.114020      6.00      15.9994
      72     2 O    8   24.738547    3.909405   -9.036065      6.00      15.9994
      73     1 H    1  -20.186796    5.058795   23.349984      1.00       1.0079
      74     1 H    1   -7.451982   39.855550   14.487229      1.00       1.0079
      75     2 O    8   18.702719   22.368780   19.862585      6.00      15.9994
      76     2 O    8  -10.321858    8.176269  -16.480063      6.00      15.9994
      77     2 O    8   10.776769    9.954761   24.963712      6.00      15.9994
      78     1 H    1    4.138101    3.917253  -23.956158      1.00       1.0079
      79     1 H    1   -7.182925   10.868281   16.603332      1.00       1.0079
      80     1 H    1    5.902717    6.008391  -23.697855      1.00       1.0079
      81     1 H    1   39.917193    4.211460   12.097095      1.00       1.0079
      82     1 H    1   -0.243719   -1.814578  -10.832421      1.00       1.0079
      83     1 H    1  -19.882163   21.273449   -6.333145      1.00       1.0079
      84     1 H    1    9.505656    5.772104   -1.777049      1.00       1.0079
      85     2 O    8   -9.662423   -4.347877  -11.244480      6.00      15.9994
      86     2 O    8    8.431194   33.082237   -1.971244      6.00      15.9994
      87     1 H    1   -3.064368   -8.722482    1.204595      1.00       1.0079
      88     1 H    1    3.032172   -5.398565    4.762287      1.00       1.0079
      89     1 H    1    8.045298   33.355537   -2.853888      1.00       1.0079
      90     1 H    1   19.419694   17.593258    8.302807      1.00       1.0079
      91     3 Na  11    7.080098   18.910987    2.194218      9.00      22.9898
      92     1 H    1   19.568217   -1.550060   18.100456      1.00       1.0079
      93     2 O    8   40.117829  -29.392360    4.630196      6.00      15.9994
      94     1 H    1  -16.958337    3.133622    8.111108      1.00       1.0079
      95     2 O    8   27.206483    7.184199   -5.333043      6.00      15.9994
      96     1 H    1    4.741138    5.887566  -22.655354      1.00       1.0079
      97     1 H    1   10.956023  -17.912678   24.157487      1.00       1.0079
      98     1 H    1   -4.109963   14.644050   28.121821      1.00       1.0079
      99     2 O    8   -7.920611   40.636821   14.047642      6.00      15.9994
     100     4 Cl  17   11.221761   28.847280   16.702134      7.00      35.4530
     101     3 Na  11  -11.048617  -10.277973   18.191985      9.00      22.9898
     102     1 H    1  -22.252924    3.196358   27.364776      1.00       1.0079
     103     1 H    1   17.607652   12.669573  -26.877796      1.00       1.0079
     104     1 H    1    2.436319   14.706687   -1.847528      1.00       1.0079
     105     1 H    1   13.268260    1.257182    6.145540      1.00       1.0079
     106     1 H    1   -2.464698   26.116312   11.371615      1.00       1.0079
     107     2 O    8   12.259054   11.405355   21.916621      6.00      15.9994
     108     1 H    1    4.353714    2.642302    2.376489      1.00       1.0079
     109     1 H    1   39.330221   21.203022  -11.681978      1.00       1.0079
     110     1 H    1   28.460210   33.204684   -1.878235      1.00       1.0079
     111     1 H    1   11.271700   10.802616   25.091209      1.00       1.0079
     112     1 H    1   37.399034   12.586850  -39.269985      1.00       1.0079
     113     1 H    1  -28.697091    9.820767    6.984221      1.00       1.0079
     114     1 H    1    9.606386   23.738858    6.616026      1.00       1.0079
     115     2 O    8    9.095112   24.344104    7.179060      6.00      15.9994
     116     1 H    1  -15.817781   22.999580   -0.024842      1.00       1.0079
     117     1 H    1   -9.040585   -4.098063  -10.505784      1.00       1.0079
     118     1 H    1   -7.826763   12.461584    8.147834      1.00       1.0079
     119     1 H    1   27.374698    7.649803   -4.469611      1.00       1.0079
     120     1 H    1   10.648462    1.392779    6.045344      1.00       1.0079
     121     2 O    8  -10.306300   -4.159400  -37.836529      6.00      15.9994
     122     1 H    1    9.814754  -10.171864    5.389506      1.00       1.0079
     123     1 H    1    3.309297    3.657379    2.015500      1.00       1.0079
     124     2 O    8   13.807252   16.870584   20.666456      6.00      15.9994
     125     1 H    1    2.829484    0.873078    4.102796      1.00       1.0079
     126     1 H    1    1.060555    2.133825   19.343131      1.00       1.0079
     127     2 O    8   -3.740478   -8.948688    0.475242      6.00      15.9994
     128     1 H    1   16.573123   21.248273   -7.181905      1.00       1.0079
     129     2 O    8   -3.900179   18.591032    0.505577      6.00      15.9994
     130     1 H    1   10.621739    6.555329   -2.397856      1.00       1.0079
     131     1 H    1   16.505433  -37.914532   19.217321      1.00       1.0079
     132     1 H    1    9.581464   -9.796882    3.933261      1.00       1.0079
     133     1 H    1   38.060995   20.453742  -11.167262      1.00       1.0079
     134     2 O    8    0.876492   30.415788  -21.159131      6.00      15.9994
     135     1 H    1   39.321995  -29.517880    5.172673      1.00       1.0079
     136     1 H    1  -15.781308   12.456041   40.995102      1.00       1.0079
     137     1 H    1   15.072662    8.725540   21.691000      1.00       1.0079
     138     1 H    1    2.903662   11.750414   13.757838      1.00       1.0079
     139     2 O    8   25.445525  -18.672925    5.137815      6.00      15.9994
     140     2 O    8  -10.470152    2.306872   -9.685393      6.00      15.9994
     141     2 O    8   -0.804321  -29.968950   15.935419      6.00      15.9994
     142     1 H    1  -15.819520   23.448516    1.428158      1.00       1.0079
     143     1 H    1   -0.773364  -24.740425   28.964778      1.00       1.0079
     144     1 H    1   45.039774    3.891776   15.490913      1.00       1.0079
     145     1 H    1  -14.460154   11.970479   40.333104      1.00       1.0079
     146     1 H    1  -12.778749   -6.874994   11.047904      1.00       1.0079
     147     1 H    1   46.215995   -9.555402    2.841616      1.00       1.0079
     148     1 H    1   20.218457    2.511956   11.697992      1.00       1.0079
     149     2 O    8    4.761305   41.072117   10.482135      6.00      15.9994
     150     1 H    1   46.615222   -7.958231    2.658629      1.00       1.0079
     151     2 O    8  -11.106293   15.014637    6.623334      6.00      15.9994
     152     2 O    8   22.041706    2.285615   -0.214614      6.00      15.9994
     153     2 O    8   -0.451288    5.532441   37.959572      6.00      15.9994
     154     1 H    1   31.641199   43.411308  -10.051539      1.00       1.0079
     155     2 O    8   -2.280200   27.032202   11.048947      6.00      15.9994
     156     1 H    1   31.734325  -17.681216   13.679893      1.00       1.0079
     157     1 H    1   -1.647162   -2.270913  -11.135340      1.00       1.0079
     158     2 O    8   19.333749   21.685955   32.407473      6.00      15.9994
     159     1 H    1   40.745077  -30.085074    4.945136      1.00       1.0079
     160     1 H    1   13.414379    9.912219   16.123250      1.00       1.0079
     161     1 H    1  -11.572538   15.517184    7.322993      1.00       1.0079
     162     1 H    1   30.063904   -3.653653   17.662144      1.00       1.0079
     163     2 O    8  -13.618697   -6.651917   11.457216      6.00      15.9994
     164     1 H    1   13.749941  -18.186199   -5.489024      1.00       1.0079
     165     1 H    1   14.577340   17.420361   20.493512      1.00       1.0079
     166     2 O    8   38.325340   21.103747  -11.824189      6.00      15.9994
     167     5 S   16   -7.742912    6.131618    1.522850      6.00      32.0650
     168     2 O    8   -8.108904   12.385339    7.206660      6.00      15.9994
     169     1 H    1    4.738547  -26.725715   -1.935090      1.00       1.0079
     170     1 H    1   -4.565960   -8.859016    1.020701      1.00       1.0079
     171     1 H    1    9.266133    0.770061    1.978404      1.00       1.0079
     172     1 H    1  -19.822077    6.430620   23.134108      1.00       1.0079
     173     1 H    1   33.638858   13.096100   16.536527      1.00       1.0079
     174     2 O    8  -16.914387    4.125425    8.121375      6.00      15.9994
     175     1 H    1   -6.500067   30.992232   12.722900      1.00       1.0079
     176     2 O    8    1.975646   11.686044   13.409016      6.00      15.9994
     177     2 O    8  -11.822770   16.343376   11.637687      6.00      15.9994
     178     1 H    1   22.668100  -19.887447  -14.570763      1.00       1.0079
     179     1 H    1   24.631815    3.804798   -9.988921      1.00       1.0079
     180     1 H    1   32.832813   13.956274   15.504982      1.00       1.0079
     181     3 Na  11   -9.748090    9.224487    1.608321      9.00      22.9898
     182     2 O    8    9.763171   28.770530   16.355196      6.00      15.9994
     183     1 H    1   23.029934  -32.731774   30.034133      1.00       1.0079
     184     2 O    8   19.615148   23.874130   22.815710      6.00      15.9994
     185     1 H    1   19.623606  -10.205253   27.891841      1.00       1.0079
     186     1 H    1    2.906563   19.133825  -11.052364      1.00       1.0079
     187     1 H    1    4.960964    0.539788   18.367831      1.00       1.0079
     188     1 H    1  -13.678329   -5.724252   11.726356      1.00       1.0079
     189     2 O    8   10.000549    5.837171   -2.607109      6.00      15.9994
     190     2 O    8  -13.625155  -20.550344    0.973896      6.00      15.9994
     191     1 H    1    6.827092   -0.694129    7.479483      1.00       1.0079
     192     2 O    8   46.543075   -3.092701   13.567091      6.00      15.9994
     193     1 H    1   38.284775   14.894843    4.719404      1.00       1.0079
     194     2 O    8   19.581997   -0.916763   17.317594      6.00      15.9994
     195     1 H    1   35.563707    8.187851    1.262893      1.00       1.0079
     196     1 H    1   18.922721   23.165028   20.392478      1.00       1.0079
     197     2 O    8   11.316941   29.696017   17.905845      6.00      15.9994
     198     1 H    1   15.357415    9.846324   24.904990      1.00       1.0079
     199     1 H    1   23.957586   13.780557   16.603995      1.00       1.0079
     200     1 H    1  -10.199328    7.187896  -16.569905      1.00       1.0079
     201     2 O    8   11.999641   29.485504   15.625458      6.00      15.9994
     202     1 H    1   29.242651   -5.321593  -13.186131      1.00       1.0079
     203     2 O    8   39.395802    3.812146   12.862882      6.00      15.9994
     204     1 H    1    7.922452   10.094247    8.770879      1.00       1.0079
     205     1 H    1   11.426623   11.038138   21.511429      1.00       1.0079
     206     1 H    1   22.629452  -20.473667  -13.052365      1.00       1.0079
     207     1 H    1    8.316439   -1.075759    7.920891      1.00       1.0079
     208     2 O    8   -4.635893  -12.101500    2.974814      6.00      15.9994
     209     1 H    1   38.655631    3.368463   12.424229      1.00       1.0079
     210     3 Na  11    7.928606   19.419063   15.232946      9.00      22.9898
     211     2 O    8    7.996443   21.900062   40.559513      6.00      15.9994
     212     1 H    1   -4.172347   18.173620   10.897283      1.00       1.0079
     213     1 H    1   -2.891076    3.900858   -4.471454      1.00       1.0079
     214     2 O    8   20.444576    3.190389   12.378305      6.00      15.9994
     215     1 H    1   28.405399   -6.759686  -13.277633      1.00       1.0079
     216     1 H    1   16.856278    3.354580   12.224214      1.00       1.0079
     217     2 O    8   19.056771    8.769813   46.277612      6.00      15.9994
     218     1 H    1  -11.348200   14.062169    6.775009      1.00       1.0079
     219     1 H    1  -14.776242   14.307425  -24.326778      1.00       1.0079
     220     2 O    8   14.377909  -18.011249   -6.233856      6.00      15.9994
     221     2 O    8    3.570836    0.908924    4.787631      6.00      15.9994
     222     2 O    8    2.506190   19.922458  -10.651726      6.00      15.9994
     223     2 O    8    7.697325   -0.373413    7.713675      6.00      15.9994
     224     2 O    8    7.211087    8.102059   11.491985      6.00      15.9994
     225     1 H    1    0.263823    5.005548   37.512119      1.00       1.0079
     226     1 H    1   26.842721    7.935764   -5.914431      1.00       1.0079
     227     2 O    8   -7.966750    4.603635    1.513847      6.00      15.9994
     228     2 O    8   42.707967   19.067997   -1.712860      6.00      15.9994
     229     2 O    8    4.988608    6.315157  -23.529000      6.00      15.9994
     230     6 N    7    2.426921   18.597000   -0.758868      5.00      14.0067
     231     2 O    8   -8.771447    6.888468    2.300141      6.00      15.9994
     232     2 O    8   23.093982   14.220453   16.648138      6.00      15.9994
     233     1 H    1   -2.817061    4.676120   -3.150555      1.00       1.0079
     234     2 O    8  -11.109036   11.353269   -0.720399      6.00      15.9994
     235     2 O    8    8.753680   13.855858   29.748351      6.00      15.9994
     236     1 H    1   12.867606   10.663645   21.966651      1.00       1.0079
     237     1 H    1   17.675940   14.090361  -26.510856      1.00       1.0079
     238     2 O    8   53.182783   13.009643   -3.196011      6.00      15.9994
     239     1 H    1   -8.819526   40.593500   14.479997      1.00       1.0079
     240     2 O    8   16.396852   25.753957   14.855410      6.00      15.9994
     241     2 O    8    4.169260    3.624637    2.485072      6.00      15.9994
     242     1 H    1  -15.885846   23.332580   22.778079      1.00       1.0079
     243     1 H    1  -10.717932   -3.850354  -36.985270      1.00       1.0079
     244     1 H    1   -3.166466   13.431420   28.671705      1.00       1.0079
     245     1 H    1   17.105459   21.394115   -5.742641      1.00       1.0079
     246     1 H    1    9.402550   33.073201   -2.134841      1.00       1.0079
     247     1 H    1   12.928748  -19.885170   36.619440      1.00       1.0079
     248     2 O    8  -14.781417   12.568834   41.003136      6.00      15.9994
     249     1 H    1   19.394210   16.361236    9.344506      1.00       1.0079
     250     1 H    1    9.536722   13.695812   30.284487      1.00       1.0079
     251     1 H    1   15.851956   25.820103   15.654426      1.00       1.0079
     252     1 H    1   45.032391    5.436102   15.615765      1.00       1.0079
     253     2 O    8    3.940337   13.502386   35.268794      6.00      15.9994
     254     2 O    8   27.196100   33.245182   35.023271      6.00      15.9994
     255     1 H    1  -23.181387   10.099124   -2.340945      1.00       1.0079
     256     2 O    8   16.444436   20.203911   18.434877      6.00      15.9994
     257     1 H    1    4.719226   40.669752    9.540442      1.00       1.0079
     258     1 H    1   22.142314    1.331325   -0.550846      1.00       1.0079
     259     1 H    1   18.614134   23.775237   22.947178      1.00       1.0079
     260     1 H    1   13.234208   24.208330   28.730942      1.00       1.0079
     261     1 H    1  -12.195645   16.029378   12.485053      1.00       1.0079
     262     2 O    8    3.286420    3.412661  -23.773847      6.00      15.9994
     263     1 H    1   52.363876   13.516338   -3.238958      1.00       1.0079
     264     1 H    1   -0.446041  -23.733316   27.886820      1.00       1.0079
     265     1 H    1    5.580872   40.688834   10.884526      1.00       1.0079
     266     1 H    1   15.683485  -37.286915   17.970470      1.00       1.0079
     267     1 H    1    6.255819  -26.624140   -2.254315      1.00       1.0079
     268     2 O    8  -23.383611   21.294985   -5.125883      6.00      15.9994
     269     1 H    1   -1.241364    5.383434   37.346859      1.00       1.0079
     270     2 O    8    8.570231    1.035677    1.275124      6.00      15.9994
     271     1 H    1   10.683076  -17.138585   25.473406      1.00       1.0079
     272     2 O    8   10.415396  -17.137227   24.575356      6.00      15.9994
     273     1 H    1    9.786074   24.865536    7.664829      1.00       1.0079
     274     1 H    1   10.298686   25.298734    2.251658      1.00       1.0079
     275     1 H    1   44.685776   -0.808816   16.824843      1.00       1.0079
     276     2 O    8   32.311960   43.032993  -10.658754      6.00      15.9994
     277     2 O    8    2.130356   18.138674    0.365549      6.00      15.9994
     278     1 H    1   32.354728  -16.169754   13.435975      1.00       1.0079
     279     2 O    8   17.974662   13.514687  -27.222695      6.00      15.9994
     280     1 H    1   -4.929285  -13.029596    2.963271      1.00       1.0079
     281     2 O    8  -19.563470   20.588926   -6.950466      6.00      15.9994
     282     2 O    8   30.614246   -4.114687   16.999497      6.00      15.9994
     283     1 H    1   12.231321   24.730112   29.739377      1.00       1.0079
     284     1 H    1  -18.580059   20.577996   -6.896366      1.00       1.0079
     285     1 H    1   24.819968  -18.032844    4.678995      1.00       1.0079
     286     1 H    1   19.104811   21.583959   20.302690      1.00       1.0079
     287     1 H    1   -0.123165  -29.581484   15.343211      1.00       1.0079
     288     1 H    1    8.502677   12.909984   29.599329      1.00       1.0079
     289     1 H    1    9.269671   42.112105   53.811675      1.00       1.0079
     290     1 H    1   -3.987911   19.011685    1.362902      1.00       1.0079
     291     1 H    1   22.712205   14.492759   15.771033      1.00       1.0079
     292     2 O    8   -7.521751    9.953562   16.849836      6.00      15.9994
     293     2 O    8   16.433824  -37.964624   18.246881      6.00      15.9994
     294     1 H    1   29.155952   33.916728   -3.076794      1.00       1.0079
     295     2 O    8   22.400468  -20.643486  -14.017469      6.00      15.9994
     296     1 H    1   -6.026321   32.159945   11.784213      1.00       1.0079
     297     1 H    1   26.806109   32.928112   35.876266      1.00       1.0079
     298     2 O    8   -1.156327   -1.683352  -10.499214      6.00      15.9994
     299     1 H    1   12.624339   21.865608    4.920055      1.00       1.0079
     300     2 O    8   14.088345    8.868189   21.573181      6.00      15.9994
     301     2 O    8    9.091748  -10.134128    4.735343      6.00      15.9994
     302     2 O    8    1.357377    1.196989   19.365012      6.00      15.9994
     303     1 H    1    8.082093   21.263646   39.810669      1.00       1.0079
     304     1 H    1    7.977722    0.209897    1.313318      1.00       1.0079
     305     2 O    8   22.056486    8.594098    4.475009      6.00      15.9994
     306     1 H    1   15.759546   19.787474   17.853955      1.00       1.0079
     307     2 O    8   13.207867  -19.455915   35.755905      6.00      15.9994
     308     1 H    1   24.211676   28.155693   10.103248      1.00       1.0079
     309     1 H    1  -10.708208   12.056819   -0.130569      1.00       1.0079
     310     1 H    1   35.559857    8.790020    2.706660      1.00       1.0079
     311     2 O    8   -0.935401  -23.801879   28.714040      6.00      15.9994
     312     2 O    8  -20.313153    5.725247   22.647755      6.00      15.9994
     313     1 H    1    4.950345    1.139350   19.820606      1.00       1.0079
     314     2 O    8   10.439479   24.653789    2.991341      6.00      15.9994
     315     2 O    8   24.602467   29.043777    9.847099      6.00      15.9994
     316     2 O    8   13.548154    7.465628   24.231324      6.00      15.9994
     317     1 H    1   19.915997    3.090649   13.198823      1.00       1.0079
     318     1 H    1   20.370776  -11.392264   27.468364      1.00       1.0079
     319     1 H    1   -7.409109   12.780838    6.596781      1.00       1.0079
     320     1 H    1   -8.663765  -15.814282   26.825472      1.00       1.0079
     321     1 H    1   25.031006    2.968250   -8.779187      1.00       1.0079
     322     1 H    1   32.661118   42.202764  -10.300147      1.00       1.0079
     323     1 H    1  -14.360919  -21.136414    1.433323      1.00       1.0079
     324     1 H    1   10.239713   11.446834   44.347035      1.00       1.0079
     325     2 O    8   13.234023   21.495543    4.238523      6.00      15.9994
     326     2 O    8  -22.179759    2.284855   27.723084      6.00      15.9994
[...]
    360      1      H           0.01139093     0.01192098     0.00252851
    361      2      O           0.02320572     0.00229771     0.01593612
    362      1      H           0.00171751     0.00249502     0.00138692
    363      1      H          -0.01124143    -0.00062651     0.01265157
    364      1      H          -0.00640047     0.01874401     0.02601732
    365      1      H           0.00893394     0.00002758    -0.01556451
    366      2      O          -0.01003113     0.01001375     0.01569547
    367      1      H           0.00270735     0.01192844     0.02073468
    368      1      H          -0.00037332    -0.02718799     0.00407139
    369      2      O           0.00924277     0.00430801     0.00062948
    370      1      H          -0.00250612    -0.01286031    -0.00208767
    371      1      H           0.00517045    -0.01566904    -0.02232747
    372      1      H          -0.01891434     0.01167400     0.00011928
    373      1      H          -0.00459439    -0.00826583    -0.00622897
    374      2      O           0.00182278     0.00433367    -0.00052742
    375      1      H           0.00763094    -0.00782272     0.01219402
    376      2      O           0.01124067    -0.00483622    -0.00059822
    377      1      H           0.02155483    -0.01688178    -0.00271505
    378      2      O          -0.02502673    -0.00912694    -0.01115172
    379      1      H          -0.00358213    -0.00358542     0.00049134
    380      2      O           0.00584297    -0.00929596     0.00414469
    381      1      H           0.00600254     0.00573041     0.01442578
    382      1      H          -0.01836381    -0.01480680     0.01337676
    383      1      H          -0.00529329    -0.00784710    -0.00727378
    384      2      O          -0.04643889    -0.00388172     0.01180477
    385      1      H           0.00752870     0.00597216    -0.02537344
    386      1      H           0.00204551    -0.01311408    -0.02754360
    387      1      H           0.00513218     0.02260891    -0.01504708
    388      1      H           0.00023848    -0.00046557     0.00954549
    389      2      O          -0.01741575     0.00418316     0.00337099
    390      1      H          -0.00814529    -0.01033471     0.00281836
    391      2      O           0.02347296     0.00659048    -0.00772144
    392      2      O           0.00652877    -0.02132191     0.00640254
    393      2      O           0.00866050    -0.00018246     0.01177840
    394      2      O          -0.01059423    -0.00447219     0.02951920
    395      1      H           0.03276551    -0.00312242    -0.01108430
    396      1      H          -0.00864356    -0.01638458    -0.01488935
    397      2      O          -0.00830402     0.01181042     0.04789951
    398      1      H          -0.00595984     0.00104722     0.02834127
    399      1      H          -0.02270326    -0.00080006    -0.01671157
    400      1      H          -0.00526642     0.00109817    -0.02095082
    401      2      O          -0.01792374     0.02716388     0.02827395
    402      2      O          -0.02499317    -0.00879995     0.01121768
 SUM OF ATOMIC FORCES          -0.00454714     0.00217149    -0.00125928     0.00519400

 -------------------------------------------------------------------------------
 -                                                                             -
 -                                DBCSR STATISTICS                             -
 -                                                                             -
 -------------------------------------------------------------------------------
 COUNTER                                    TOTAL       BLAS       SMM       ACC
 flops     9 x    28 x     9               435456       0.0%    100.0%      0.0%
 flops     9 x     9 x    92              5216400       0.0%    100.0%      0.0%
 flops     9 x     9 x    96              5443200       0.0%    100.0%      0.0%
 flops     9 x    32 x     9              8460288       0.0%    100.0%      0.0%
 flops     5 x    28 x     9             15482880       0.0%    100.0%      0.0%
 flops     9 x    28 x     5             15482880       0.0%    100.0%      0.0%
 flops     9 x     9 x    64             21772800       0.0%    100.0%      0.0%
 flops    13 x    28 x     9             22329216       0.0%    100.0%      0.0%
 flops     9 x    28 x    13             22329216       0.0%    100.0%      0.0%
 flops     5 x     9 x    92            144610200       0.0%    100.0%      0.0%
 flops     5 x     9 x    96            150897600       0.0%    100.0%      0.0%
 flops     9 x     5 x    92            152145000       0.0%    100.0%      0.0%
 flops     9 x     5 x    96            158760000       0.0%    100.0%      0.0%
 flops     9 x    13 x    92            203439600       0.0%    100.0%      0.0%
 flops     9 x    13 x    96            212284800       0.0%    100.0%      0.0%
 flops    13 x     9 x    92            224537040       0.0%    100.0%      0.0%
 flops    13 x     9 x    96            234299520       0.0%    100.0%      0.0%
 flops     5 x    32 x     9            300810240       0.0%    100.0%      0.0%
 flops     9 x    32 x     5            300810240       0.0%    100.0%      0.0%
 flops    13 x    32 x     9            433824768       0.0%    100.0%      0.0%
 flops     9 x    32 x    13            433824768       0.0%    100.0%      0.0%
 flops     5 x    28 x     5            550502400       0.0%    100.0%      0.0%
 flops     5 x     9 x    64            603590400       0.0%    100.0%      0.0%
 flops     9 x     5 x    64            635040000       0.0%    100.0%      0.0%
 flops    13 x    28 x     5            787790640       0.0%    100.0%      0.0%
 flops     5 x    28 x    13            787790640       0.0%    100.0%      0.0%
 flops     9 x    13 x    64            849139200       0.0%    100.0%      0.0%
 flops    13 x     9 x    64            937198080       0.0%    100.0%      0.0%
 flops    13 x    28 x    13           1015297920       0.0%    100.0%      0.0%
 flops     5 x     5 x    92           5296256000       0.0%    100.0%      0.0%
 flops     5 x     5 x    96           5526528000       0.0%    100.0%      0.0%
 flops    13 x     5 x    92           7542334800       0.0%    100.0%      0.0%
 flops     5 x    13 x    92           7556985800       0.0%    100.0%      0.0%
 flops    13 x     5 x    96           7870262400       0.0%    100.0%      0.0%
 flops     5 x    13 x    96           7885550400       0.0%    100.0%      0.0%
 flops    13 x    13 x    92           9807211960       0.0%    100.0%      0.0%
 flops    13 x    13 x    96          10233612480       0.0%    100.0%      0.0%
 flops     5 x    32 x     5          10695475200       0.0%    100.0%      0.0%
 flops    13 x    32 x     5          15305646720       0.0%    100.0%      0.0%
 flops     5 x    32 x    13          15305646720       0.0%    100.0%      0.0%
 flops    13 x    32 x    13          19725788160       0.0%    100.0%      0.0%
 flops     5 x     5 x    64          22106112000       0.0%    100.0%      0.0%
 flops    13 x     5 x    64          31481049600       0.0%    100.0%      0.0%
 flops     5 x    13 x    64          31542201600       0.0%    100.0%      0.0%
 flops    13 x    13 x    64          40934449920       0.0%    100.0%      0.0%
 flops inhomo. stacks                           0       0.0%      0.0%      0.0%
 flops total                       258.048657E+09       0.0%    100.0%      0.0%
 flops max/rank                      9.096576E+09       0.0%    100.0%      0.0%
 matmuls inhomo. stacks                         0       0.0%      0.0%      0.0%
 matmuls total                           39428264       0.0%    100.0%      0.0%
 number of processed stacks                 82744       0.0%    100.0%      0.0%
 average stack size                                     0.0     476.5       0.0
 marketing flops                   468.957823E+09
 -------------------------------------------------------------------------------
 # multiplications                             41
 max memory usage/rank             747.819008E+06
 # max total images/rank                        2
 # max 3D layers                                1
 # MPI messages exchanged                   17056
 MPI messages size (bytes):
  total size                         8.542147E+09
  min size                         196.096000E+03
  max size                           2.497560E+06
  average size                     500.829406E+03
 MPI breakdown and total messages size (bytes):
             size <=      128                   0                        0
       128 < size <=     8192                   0                        0
      8192 < size <=    32768                   0                        0
     32768 < size <=   131072                   0                        0
    131072 < size <=  4194304               17056               8542148064
   4194304 < size <= 16777216                   0                        0
  16777216 < size                               0                        0
 -------------------------------------------------------------------------------

 *** WARNING in dbcsr_mm.F:295 :: Using a non-square number of MPI ranks ***
 *** might lead to poor performance. Used ranks: 32 Suggested: 36 64     ***

 -------------------------------------------------------------------------------
 -                                                                             -
 -                      DBCSR MESSAGE PASSING PERFORMANCE                      -
 -                                                                             -
 -------------------------------------------------------------------------------
 ROUTINE             CALLS      AVE VOLUME [Bytes]
 MP_Group               42
 MP_Bcast               46                     12.
 MP_Allreduce          373                     13.
 MP_Alltoall           868                 685980.
 MP_Wait              2624
 MP_ISend             1312                 226754.
 MP_IRecv             1312                 215265.
 MP_Memory            2400
 -------------------------------------------------------------------------------

 MEMORY| Estimated peak process memory [MiB]                                 716

 -------------------------------------------------------------------------------
 ----                             MULTIGRID INFO                            ----
 -------------------------------------------------------------------------------
 count for grid        1:        1077953          cutoff [a.u.]          400.00
 count for grid        2:        1118953          cutoff [a.u.]          133.33
 count for grid        3:         867476          cutoff [a.u.]           44.44
 count for grid        4:         602708          cutoff [a.u.]           14.81
 count for grid        5:         237909          cutoff [a.u.]            4.94
 total gridlevel count  :        3904999

 -------------------------------------------------------------------------------
 -                                                                             -
 -                         MESSAGE PASSING PERFORMANCE                         -
 -                                                                             -
 -------------------------------------------------------------------------------

 ROUTINE             CALLS      AVE VOLUME [Bytes]
 MP_Group                5
 MP_Bcast             2209                 475170.
 MP_Allreduce         4237                   4143.
 MP_Sync                 6
 MP_Alltoall           787               26770971.
 MP_SendRecv        108066                 286932.
 MP_ISendRecv         6510                  92011.
 MP_Wait             12336
 MP_ISend             5324                 561794.
 MP_IRecv             5324                 561794.
 MP_Recv                51                 809472.
 -------------------------------------------------------------------------------


 -------------------------------------------------------------------------------
 -                                                                             -
 -                           R E F E R E N C E S                               -
 -                                                                             -
 -------------------------------------------------------------------------------
 
 CP2K version 7.1, the CP2K developers group (2019).
 CP2K is freely available from https://www.cp2k.org/ .

 Schuett, Ole; Messmer, Peter; Hutter, Juerg; VandeVondele, Joost. 
 Electronic Structure Calculations on Graphics Processing Units, John
 Wiley & Sons, Ltd, 173-190 (2016). 
 GPU-Accelerated Sparse Matrix-Matrix Multiplication for
 Linear Scaling Density Functional Theory.
 https://dx.doi.org/10.1002/9781118670712.ch8

 Borstnik, U; VandeVondele, J; Weber, V; Hutter, J. 
 PARALLEL COMPUTING, 40 (5-6), 47-58 (2014). 
 Sparse matrix multiplication: The distributed block-compressed sparse
 row library.
 https://dx.doi.org/10.1016/j.parco.2014.03.012

 Hutter, J; Iannuzzi, M; Schiffmann, F; VandeVondele, J. 
 WIREs Comput Mol Sci., 4 (1), 15-25 (2014). 
 CP2K: atomistic simulations of condensed matter systems.
 https://dx.doi.org/10.1002/wcms.1159

 Marek, A; Blum, V; Johanni, R; Havu, V; Lang, B; Auckenthaler, T;
 Heinecke, A; Bungartz, H; Lederer, H. 
 Journal of Physics: Condensed Matter, 26 (21), (2014). 
 The ELPA library: scalable parallel eigenvalue solutions for
 electronic structure
 theory and computational science.
 https://dx.doi.org/10.1088/0953-8984/26/21/213201

 Grimme, S; Ehrlich, S; Goerigk, L. 
 JOURNAL OF COMPUTATIONAL CHEMISTRY, 32, 1456 (2011). 
 Effect of the damping function in dispersion corrected density functional theory.
 https://dx.doi.org/10.1002/jcc.21759

 Grimme, S; Antony, J; Ehrlich, S; Krieg, H. 
 JOURNAL OF CHEMICAL PHYSICS, 132 (15), 154104 (2010). 
 A consistent and accurate ab initio parametrization of density
 functional dispersion correction (DFT-D) for the 94 elements H-Pu.
 https://dx.doi.org/10.1063/1.3382344

 VandeVondele, J; Hutter, J. 
 JOURNAL OF CHEMICAL PHYSICS, 127 (11), 114105 (2007). 
 Gaussian basis sets for accurate calculations on molecular systems in
 gas and condensed phases.
 https://dx.doi.org/10.1063/1.2770708

 Krack, M. 
 THEORETICAL CHEMISTRY ACCOUNTS, 114 (1-3), 145-152 (2005). 
 Pseudopotentials for H to Kr optimized for gradient-corrected
 exchange-correlation functionals.
 https://dx.doi.org/10.1007/s00214-005-0655-y

 VandeVondele, J; Krack, M; Mohamed, F; Parrinello, M; Chassaing, T;
 Hutter, J. COMPUTER PHYSICS COMMUNICATIONS, 167 (2), 103-128 (2005). 
 QUICKSTEP: Fast and accurate density functional calculations using a
 mixed Gaussian and plane waves approach.
 https://dx.doi.org/10.1016/j.cpc.2004.12.014

 Frigo, M; Johnson, SG. 
 PROCEEDINGS OF THE IEEE, 93 (2), 216-231 (2005). 
 The design and implementation of FFTW3.
 https://dx.doi.org/10.1109/JPROC.2004.840301

 Hartwigsen, C; Goedecker, S; Hutter, J. 
 PHYSICAL REVIEW B, 58 (7), 3641-3662 (1998). 
 Relativistic separable dual-space Gaussian pseudopotentials from H to Rn.
 https://dx.doi.org/10.1103/PhysRevB.58.3641

 Lippert, G; Hutter, J; Parrinello, M. 
 MOLECULAR PHYSICS, 92 (3), 477-487 (1997). 
 A hybrid Gaussian and plane wave density functional scheme.
 https://dx.doi.org/10.1080/002689797170220

 Perdew, JP; Burke, K; Ernzerhof, M. 
 PHYSICAL REVIEW LETTERS, 77 (18), 3865-3868 (1996). 
 Generalized gradient approximation made simple.
 https://dx.doi.org/10.1103/PhysRevLett.77.3865

 Goedecker, S; Teter, M; Hutter, J. 
 PHYSICAL REVIEW B, 54 (3), 1703-1710 (1996). 
 Separable dual-space Gaussian pseudopotentials.
 https://dx.doi.org/10.1103/PhysRevB.54.1703


 -------------------------------------------------------------------------------
 -                                                                             -
 -                                T I M I N G                                  -
 -                                                                             -
 -------------------------------------------------------------------------------
 SUBROUTINE                       CALLS  ASD         SELF TIME        TOTAL TIME
                                MAXIMUM       AVERAGE  MAXIMUM  AVERAGE  MAXIMUM
 CP2K                                 1  1.0    0.017    0.031  355.836  355.864
 qs_forces                            1  2.0    0.000    0.001  355.224  355.252
 qs_energies                          1  3.0    0.000    0.000  352.180  352.207
 scf_post_calculation_gpw             1  4.0    0.000    0.000  229.199  229.216
 get_localization_info                1  5.0    0.000    0.000  228.785  228.804
 qs_loc_driver                        1  6.0    0.000    0.000  228.785  228.804
 optimize_loc_berry                   1  7.0    0.018    0.019  228.776  228.793
 jacobi_rot_para                      1  8.0  197.428  201.763  228.503  228.521
 scf_env_do_scf                       1  4.0    0.000    0.000  121.044  121.058
 scf_env_do_scf_inner_loop           34  5.0    0.002    0.006  121.043  121.057
 rebuild_ks_matrix                   35  6.9    0.000    0.000   66.486   66.496
 qs_ks_build_kohn_sham_matrix        35  7.9    0.004    0.005   66.486   66.496
 qs_ks_update_qs_env                 34  6.0    0.000    0.000   64.327   64.337
 pw_transfer                        769 10.4    0.041    0.049   35.893   36.076
 fft_wrap_pw1pw2                    699 11.4    0.006    0.008   35.471   35.651
 fft_wrap_pw1pw2_400                419 12.4    3.141    3.270   34.406   34.574
 qs_vxc_create                       35  8.9    0.001    0.001   33.083   33.144
 xc_vxc_pw_create                    35  9.9    0.478    0.517   33.082   33.142
 qs_rho_update_rho                   35  6.0    0.000    0.000   33.039   33.047
 calculate_rho_elec                  35  7.0   22.297   22.611   33.039   33.046
 sum_up_and_integrate                35  8.9    0.093    0.095   28.671   28.681
 integrate_v_rspace                  35  9.9   20.653   21.094   28.577   28.589
 mp_allgather_d23                 53971  9.0   16.670   26.803   16.670   26.803
 fft3d_ps                           699 13.4   17.556   17.704   26.174   26.367
 xc_rho_set_and_dset_create          35 10.9    0.165    0.176   19.884   19.939
 mp_sendrecv_zm3                  53971  9.0   11.773   15.566   11.773   15.566
 qs_scf_new_mos                      34  6.0    0.001    0.001   14.681   14.701
 eigensolver                         34  7.0    0.002    0.003   13.640   13.657
 density_rs2pw                       35  8.0    0.002    0.003    9.937   10.270
 cp_fm_diag_elpa                     34  8.0    0.000    0.000    9.947    9.952
 cp_fm_diag_elpa_base                34  9.0    9.632    9.634    9.946    9.952
 gspace_mixing                       33  6.0    0.112    0.115    9.866    9.867
 xc_functional_eval                  35 11.9    0.000    0.001    9.146    9.197
 pbe_lda_eval                        35 12.9    9.146    9.197    9.146    9.197
 rs_pw_transfer                     354 10.4    0.004    0.004    7.408    7.734
 potential_pw2rs                     35 10.9    0.010    0.011    7.219    7.223
 -------------------------------------------------------------------------------

 The number of warnings for this run is : 2
 
 -------------------------------------------------------------------------------
  **** **** ******  **  PROGRAM ENDED AT                 2024-12-23 18:11:37.061
 ***** ** ***  *** **   PROGRAM RAN ON                                   c53-018
 **    ****   ******    PROGRAM RAN BY                                     jxzhu
 ***** **    ** ** **   PROGRAM PROCESS ID                                 79417
  **** **  *******  **  PROGRAM STOPPED IN /data/jxzhu/tmp_test/ai2-kit_wannier_
                                           ut/random
