363
Lattice="10.126 0.0 0.0 0.0 10.126 0.0 0.0 0.0 38.95" Properties=species:S:1:pos:R:3:initial_charges:R:1:forces:R:3 timestep=40000 energy=0.0 pbc="T T T"
 Cu        1.265721        1.265721       34.474998     0 0 0 0      
 Cu        3.797163        1.265721       34.474998     0 0 0 0
 Cu        6.328606        1.265721       34.474998     0 0 0 0
 Cu        8.860048        1.265721       34.474998     0 0 0 0
 Cu        1.265721        3.797163       34.474998     0 0 0 0
 Cu        3.797163        3.797163       34.474998     0 0 0 0
 Cu        6.328606        3.797163       34.474998     0 0 0 0
 Cu        8.860048        3.797163       34.474998     0 0 0 0
 Cu        1.265721        6.328606       34.474998     0 0 0 0
 Cu        3.797163        6.328606       34.474998     0 0 0 0
 Cu        6.328606        6.328606       34.474998     0 0 0 0
 Cu        8.860048        6.328606       34.474998     0 0 0 0
 Cu        1.265721        8.860048       34.474998     0 0 0 0
 Cu        3.797163        8.860048       34.474998     0 0 0 0
 Cu        6.328606        8.860048       34.474998     0 0 0 0
 Cu        8.860048        8.860048       34.474998     0 0 0 0
 Cu        0.000000        0.000000       36.264999     0 0 0 0
 Cu        2.531442        0.000000       36.264999     0 0 0 0
 Cu        5.062885        0.000000       36.264999     0 0 0 0
 Cu        7.594327        0.000000       36.264999     0 0 0 0
 Cu        0.000000        2.531442       36.264999     0 0 0 0
 Cu        2.531442        2.531442       36.264999     0 0 0 0
 Cu        5.062885        2.531442       36.264999     0 0 0 0
 Cu        7.594327        2.531442       36.264999     0 0 0 0
 Cu        0.000000        5.062885       36.264999     0 0 0 0
 Cu        2.531442        5.062885       36.264999     0 0 0 0
 Cu        5.062885        5.062885       36.264999     0 0 0 0
 Cu        7.594327        5.062885       36.264999     0 0 0 0
 Cu        0.000000        7.594327       36.264999     0 0 0 0
 Cu        2.531442        7.594327       36.264999     0 0 0 0
 Cu        5.062885        7.594327       36.264999     0 0 0 0
 Cu        7.594327        7.594327       36.264999     0 0 0 0
 Cu        1.265721        1.265721       38.055000     0 0 0 0
 Cu        3.797163        1.265721       38.055000     0 0 0 0
 Cu        6.328606        1.265721       38.055000     0 0 0 0
 Cu        8.860048        1.265721       38.055000     0 0 0 0
 Cu        1.265721        3.797163       38.055000     0 0 0 0
 Cu        3.797163        3.797163       38.055000     0 0 0 0
 Cu        6.328606        3.797163       38.055000     0 0 0 0
 Cu        8.860048        3.797163       38.055000     0 0 0 0
 Cu        1.265721        6.328606       38.055000     0 0 0 0
 Cu        3.797163        6.328606       38.055000     0 0 0 0
 Cu        6.328606        6.328606       38.055000     0 0 0 0
 Cu        8.860048        6.328606       38.055000     0 0 0 0
 Cu        1.265721        8.860048       38.055000     0 0 0 0
 Cu        3.797163        8.860048       38.055000     0 0 0 0
 Cu        6.328606        8.860048       38.055000     0 0 0 0
 Cu        8.860048        8.860048       38.055000     0 0 0 0
 Cu        0.000000        0.000000        0.895000     0 0 0 0
 Cu        2.531442        0.000000        0.895000     0 0 0 0
 Cu        5.062885        0.000000        0.895000     0 0 0 0
 Cu        7.594327        0.000000        0.895000     0 0 0 0
 Cu        0.000000        2.531442        0.895000     0 0 0 0
 Cu        2.531442        2.531442        0.895000     0 0 0 0
 Cu        5.062885        2.531442        0.895000     0 0 0 0
 Cu        7.594327        2.531442        0.895000     0 0 0 0
 Cu        0.000000        5.062885        0.895000     0 0 0 0
 Cu        2.531442        5.062885        0.895000     0 0 0 0
 Cu        5.062885        5.062885        0.895000     0 0 0 0
 Cu        7.594327        5.062885        0.895000     0 0 0 0
 Cu        0.000000        7.594327        0.895000     0 0 0 0
 Cu        2.531442        7.594327        0.895000     0 0 0 0
 Cu        5.062885        7.594327        0.895000     0 0 0 0
 Cu        7.594327        7.594327        0.895000     0 0 0 0
 Cu        1.265721        1.265721        2.685000     0 0 0 0
 Cu        3.797163        1.265721        2.685000     0 0 0 0
 Cu        6.328606        1.265721        2.685000     0 0 0 0
 Cu        8.860048        1.265721        2.685000     0 0 0 0
 Cu        1.265721        3.797163        2.685000     0 0 0 0
 Cu        3.797163        3.797163        2.685000     0 0 0 0
 Cu        6.328606        3.797163        2.685000     0 0 0 0
 Cu        8.860048        3.797163        2.685000     0 0 0 0
 Cu        1.265721        6.328606        2.685000     0 0 0 0
 Cu        3.797163        6.328606        2.685000     0 0 0 0
 Cu        6.328606        6.328606        2.685000     0 0 0 0
 Cu        8.860048        6.328606        2.685000     0 0 0 0
 Cu        1.265721        8.860048        2.685000     0 0 0 0
 Cu        3.797163        8.860048        2.685000     0 0 0 0
 Cu        6.328606        8.860048        2.685000     0 0 0 0
 Cu        8.860048        8.860048        2.685000     0 0 0 0
 Cu        0.000000        0.000000        4.475000     0 0 0 0
 Cu        2.531442        0.000000        4.475000     0 0 0 0
 Cu        5.062885        0.000000        4.475000     0 0 0 0
 Cu        7.594327        0.000000        4.475000     0 0 0 0
 Cu        0.000000        2.531442        4.475000     0 0 0 0
 Cu        2.531442        2.531442        4.475000     0 0 0 0
 Cu        5.062885        2.531442        4.475000     0 0 0 0
 Cu        7.594327        2.531442        4.475000     0 0 0 0
 Cu        0.000000        5.062885        4.475000     0 0 0 0
 Cu        2.531442        5.062885        4.475000     0 0 0 0
 Cu        5.062885        5.062885        4.475000     0 0 0 0
 Cu        7.594327        5.062885        4.475000     0 0 0 0
 Cu        0.000000        7.594327        4.475000     0 0 0 0
 Cu        2.531442        7.594327        4.475000     0 0 0 0
 Cu        5.062885        7.594327        4.475000     0 0 0 0
 Cu        7.594327        7.594327        4.475000     0 0 0 0
 Cl        3.698108        8.775192        6.366661     0 0 0 0
 Cl        8.671374        8.902241        6.174469     0 0 0 0
 Cl        8.743612        3.641942        6.135410     0 0 0 0
 Cl        3.649028        3.577695        6.105646     0 0 0 0
 Cl        1.366069        0.890219        6.206633     0 0 0 0
 Cl        1.131116        6.201489        6.370154     0 0 0 0
 Cl        6.146626        6.258252        6.157233     0 0 0 0
 Cl        6.286498        1.341925        6.185331     0 0 0 0
 Cl        2.477449        2.402780       32.836498     0 0 0 0
 Cl        7.487354        2.422323       32.838604     0 0 0 0
 Cl        2.437834        7.657479       32.647449     0 0 0 0
 Cl        7.845882        7.807944       32.804504     0 0 0 0
 Cl        5.108699        5.086163       32.644596     0 0 0 0
 Cl        0.136239        4.841213       32.725975     0 0 0 0
 Cl        0.086031       10.033920       32.824715     0 0 0 0
 Cl        5.149776       10.106164       32.823662     0 0 0 0
 O         3.497988        1.368216       28.994888     0 0 0 0
 H         4.272384        1.442179       29.647461     0 0 0 0
 H         3.627992        0.768902       28.185488     0 0 0 0
 O         9.288758        1.820516       17.469234     0 0 0 0
 H         9.864471        1.283716       16.873213     0 0 0 0
 H         8.505309        2.024991       16.867096     0 0 0 0
 O         3.061996        9.573251       17.532454     0 0 0 0
 H         4.042894        9.689098       17.134464     0 0 0 0
 H         3.008668        8.583024       17.612272     0 0 0 0
 O         5.276413        6.013820       12.261033     0 0 0 0
 H         5.185645        6.386610       13.214572     0 0 0 0
 H         4.626519        5.261269       12.294759     0 0 0 0
 O         0.842767        0.417615       15.812818     0 0 0 0
 H         0.338817        9.733873       15.728962     0 0 0 0
 H         1.708196        0.072437       16.240055     0 0 0 0
 O         7.409152        2.620987       13.884901     0 0 0 0
 H         7.422346        3.150918       13.020475     0 0 0 0
 H         7.366139        1.689662       13.669730     0 0 0 0
 O         6.210485        3.374682        8.076966     0 0 0 0
 H         6.935299        2.854869        7.706432     0 0 0 0
 H         6.685929        3.911867        8.808183     0 0 0 0
 O         3.501671        7.076661       10.691522     0 0 0 0
 H         2.734632        6.463911       10.797298     0 0 0 0
 H         4.167440        6.892535       11.416956     0 0 0 0
 O         6.174447        2.581919       16.492279     0 0 0 0
 H         5.778455        3.474561       16.745493     0 0 0 0
 H         6.499373        2.825504       15.555454     0 0 0 0
 O         7.179814        4.130413       30.688843     0 0 0 0
 H         6.710005        4.814863       30.090292     0 0 0 0
 H         8.055337        4.196806       30.271479     0 0 0 0
 O         4.579576        0.079013       24.600632     0 0 0 0
 H         5.438095        0.490735       24.808167     0 0 0 0
 H         4.042985        0.744259       24.127943     0 0 0 0
 O         3.445437        2.209643       23.072498     0 0 0 0
 H         3.928970        2.762417       22.397049     0 0 0 0
 H         3.095315        1.498394       22.521544     0 0 0 0
 O         0.802491        1.214275       23.188906     0 0 0 0
 H         1.373953        1.309415       23.989305     0 0 0 0
 H         1.411205        0.691511       22.516224     0 0 0 0
 O         3.521437        6.556513       30.183954     0 0 0 0
 H         4.462202        6.248569       29.890381     0 0 0 0
 H         2.929318        5.774110       30.190273     0 0 0 0
 O         5.348345        6.500855       25.457672     0 0 0 0
 H         5.591564        5.571948       25.721817     0 0 0 0
 H         6.242051        6.917450       25.241644     0 0 0 0
 O        10.001137        0.882646       10.133868     0 0 0 0
 H         0.327043        0.542871       10.933812     0 0 0 0
 H         0.289191        0.777559        9.326044     0 0 0 0
 O         1.908916        7.765835       28.404188     0 0 0 0
 H         2.518482        7.493664       29.101847     0 0 0 0
 H         1.918527        6.977892       27.773355     0 0 0 0
 O         6.573778        3.787607       22.840815     0 0 0 0
 H         6.033833        3.064546       23.238249     0 0 0 0
 H         6.597475        3.483214       21.881321     0 0 0 0
 O         1.230427        8.127192       24.355692     0 0 0 0
 H         0.926886        7.379697       23.811460     0 0 0 0
 H         2.086917        8.226625       23.969292     0 0 0 0
 O         0.791829        6.547361       15.884409     0 0 0 0
 H         0.065070        7.192852       15.483847     0 0 0 0
 H         0.153303        5.859893       16.213255     0 0 0 0
 O         7.107373        0.957664       25.767979     0 0 0 0
 H         7.425898        0.211831       26.467241     0 0 0 0
 H         7.491584        1.809588       26.201496     0 0 0 0
 O         1.497598        8.178702        9.050759     0 0 0 0
 H         1.107483        7.731229        9.852775     0 0 0 0
 H         2.189063        7.513617        8.836734     0 0 0 0
 O         0.915338        9.421301       12.825915     0 0 0 0
 H         1.324467       10.057275       13.403978     0 0 0 0
 H         1.304145        8.542929       13.026294     0 0 0 0
 O         5.890366        6.055398       29.419861     0 0 0 0
 H         5.776233        5.642668       28.518225     0 0 0 0
 H         6.333897        6.992031       29.337276     0 0 0 0
 O         2.149766        6.357377       26.346573     0 0 0 0
 H         1.244101        6.058462       26.274111     0 0 0 0
 H         2.012712        7.140360       25.754965     0 0 0 0
 O         1.619687        1.621222       26.183031     0 0 0 0
 H         0.880529        2.135377       25.839001     0 0 0 0
 H         2.195140        2.444158       26.201586     0 0 0 0
 O         4.491502        5.154324       16.704184     0 0 0 0
 H         4.405542        5.141908       17.634012     0 0 0 0
 H         3.743606        4.607958       16.352989     0 0 0 0
 O         3.270615        1.755443        8.879951     0 0 0 0
 H         3.219170        1.297127        9.775310     0 0 0 0
 H         3.875237        1.249185        8.335716     0 0 0 0
 O         6.084723        6.498978       21.758087     0 0 0 0
 H         5.235384        6.975854       22.006399     0 0 0 0
 H         5.930978        5.502378       21.920305     0 0 0 0
 O         6.110915        6.907263       18.822050     0 0 0 0
 H         5.149585        6.784863       18.739523     0 0 0 0
 H         6.300741        7.177505       19.765875     0 0 0 0
 O         3.471827        0.908130       13.891944     0 0 0 0
 H         3.552603        0.294501       14.602455     0 0 0 0
 H         3.779100        0.657418       12.944259     0 0 0 0
 O         9.767361        4.437912       29.558224     0 0 0 0
 H         9.561675        4.184783       28.649357     0 0 0 0
 H         0.671591        4.328040       29.339388     0 0 0 0
 O         0.334769        6.208774       22.680223     0 0 0 0
 H         9.875415        5.516187       23.126245     0 0 0 0
 H         9.833360        6.665407       22.091999     0 0 0 0
 O         1.028330        5.918690       11.157544     0 0 0 0
 H         0.156228        5.873105       11.624507     0 0 0 0
 H         0.964334        5.250586       10.455111     0 0 0 0
 O         8.811693        4.993145        8.517355     0 0 0 0
 H         9.323339        4.592726        9.241777     0 0 0 0
 H         8.353880        5.772869        8.891333     0 0 0 0
 O         8.784575        6.649595       20.357330     0 0 0 0
 H         8.948115        7.010626       19.476456     0 0 0 0
 H         8.069838        7.169084       20.829231     0 0 0 0
 O         0.300234        9.328213       18.961039     0 0 0 0
 H         9.856488        9.505496       19.822121     0 0 0 0
 H         0.879482       10.096012       18.777405     0 0 0 0
 O         1.716047        7.065123       18.442522     0 0 0 0
 H         1.094046        7.912831       18.695547     0 0 0 0
 H         1.269044        6.678034       17.629484     0 0 0 0
 O         2.366241        0.117032       21.380304     0 0 0 0
 H         3.058941        9.656251       21.041214     0 0 0 0
 H         2.347525        0.813465       20.646088     0 0 0 0
 O         4.369651        3.891524       21.032703     0 0 0 0
 H         4.448398        3.189694       20.288721     0 0 0 0
 H         3.523805        4.362749       20.990620     0 0 0 0
 O         7.450250        0.374978       31.075817     0 0 0 0
 H         8.322332        0.878106       30.960869     0 0 0 0
 H         7.597250        9.797106       30.411621     0 0 0 0
 O         3.452701        3.982394       25.735163     0 0 0 0
 H         3.100876        3.789868       24.816242     0 0 0 0
 H         3.060840        4.915183       25.922464     0 0 0 0
 O         5.272423       10.111754       16.547091     0 0 0 0
 H         5.997271        9.636764       17.029930     0 0 0 0
 H         5.595478        0.979659       16.570030     0 0 0 0
 O         9.713284        2.456489       20.849110     0 0 0 0
 H         9.116852        1.659875       20.866186     0 0 0 0
 H        10.020663        2.676790       21.761717     0 0 0 0
 O         9.071639        3.791462       23.820135     0 0 0 0
 H         8.190797        3.947606       23.448816     0 0 0 0
 H         9.026471        3.558518       24.830503     0 0 0 0
 O         7.440791        3.724602       19.783461     0 0 0 0
 H         8.337036        3.320229       19.933369     0 0 0 0
 H         7.517479        4.214260       18.934198     0 0 0 0
 O         3.184431        4.205886       12.993648     0 0 0 0
 H         2.310626        4.236161       12.481905     0 0 0 0
 H         3.074242        3.469675       13.632696     0 0 0 0
 O         3.998378        7.586682       23.513643     0 0 0 0
 H         4.300295        7.213312       24.403730     0 0 0 0
 H         4.420540        8.507417       23.497602     0 0 0 0
 O         5.995283        9.641451        8.777843     0 0 0 0
 H         6.381045       -0.009598        9.580241     0 0 0 0
 H         6.414667        8.767512        8.810537     0 0 0 0
 O         5.412520        7.427428       14.603061     0 0 0 0
 H         5.987668        7.031070       15.347926     0 0 0 0
 H         4.561493        7.717406       15.009928     0 0 0 0
 O         8.836014        8.447588        9.444652     0 0 0 0
 H         9.731784        8.274994        9.681607     0 0 0 0
 H         8.639429        9.274287        9.924433     0 0 0 0
 O         6.528321        8.868640       28.978214     0 0 0 0
 H         5.625806        8.739070       28.769844     0 0 0 0
 H         7.355778        8.840000       28.377037     0 0 0 0
 O         9.331383        8.058451       30.203545     0 0 0 0
 H         9.687355        7.226155       30.462193     0 0 0 0
 H         0.056009        8.601695       30.182981     0 0 0 0
 O         1.986691        5.224204       20.226206     0 0 0 0
 H         1.366119        5.537318       20.928030     0 0 0 0
 H         1.988564        5.999010       19.575935     0 0 0 0
 O         9.350078        2.216723       31.048565     0 0 0 0
 H         0.072692        1.751621       30.887423     0 0 0 0
 H         8.919063        2.383342       30.197176     0 0 0 0
 O         2.360096        3.617571       28.493189     0 0 0 0
 H         2.663773        4.166714       27.744614     0 0 0 0
 H         2.951916        2.840835       28.665819     0 0 0 0
 O         8.379056        0.346662       23.260237     0 0 0 0
 H         9.315172        0.483465       23.487059     0 0 0 0
 H         7.913336        0.908970       23.919462     0 0 0 0
 O         0.701616        3.316329        8.300761     0 0 0 0
 H         0.193331        2.668213        8.830732     0 0 0 0
 H         1.565491        2.967823        8.407936     0 0 0 0
 O         7.529904        7.633878       12.429512     0 0 0 0
 H         8.409940        7.943132       12.064403     0 0 0 0
 H         7.064882        6.979934       11.841580     0 0 0 0
 O         0.473680        2.482736       13.445128     0 0 0 0
 H         0.788226        1.712931       13.909195     0 0 0 0
 H         9.631412        2.285739       13.642490     0 0 0 0
 O         5.845283        4.067328       27.281973     0 0 0 0
 H         5.133048        3.630547       26.833923     0 0 0 0
 H         6.696912        3.519702       27.087189     0 0 0 0
 O         1.751214        1.933007       19.154963     0 0 0 0
 H         0.981336        2.212147       19.802443     0 0 0 0
 H         1.775236        2.764777       18.577950     0 0 0 0
 O         0.310955        4.428311       17.903858     0 0 0 0
 H         0.548843        4.324301       18.930374     0 0 0 0
 H         9.864715        3.646177       17.754555     0 0 0 0
 O         9.313120        6.396490       26.075602     0 0 0 0
 H         8.870622        6.592847       25.207516     0 0 0 0
 H         8.937146        5.470106       26.087955     0 0 0 0
 O         7.627131        5.117438       17.052797     0 0 0 0
 H         7.858879        5.052101       16.090553     0 0 0 0
 H         6.701375        5.444420       17.126755     0 0 0 0
 O         5.421306        9.428950       20.377617     0 0 0 0
 H         5.423965        0.289576       20.032722     0 0 0 0
 H         5.023877        8.979135       19.649166     0 0 0 0
 O         9.214362        8.593798       15.292711     0 0 0 0
 H         9.085665        8.986248       14.413158     0 0 0 0
 H         8.438811        8.653411       15.817116     0 0 0 0
 O         5.468711        1.919599       19.380011     0 0 0 0
 H         6.347890        2.454467       19.427044     0 0 0 0
 H         5.294644        1.820401       18.501656     0 0 0 0
 O         7.451618        7.789657       24.170212     0 0 0 0
 H         7.811008        8.730873       23.958874     0 0 0 0
 H         6.785314        7.665045       23.437317     0 0 0 0
 O         2.155405        7.313620       13.665394     0 0 0 0
 H         1.670154        7.080780       14.406959     0 0 0 0
 H         2.614210        6.595247       13.233404     0 0 0 0
 O         8.140019        0.047292       20.705954     0 0 0 0
 H         8.116948        0.113786       21.654621     0 0 0 0
 H         7.327279        9.636815       20.530205     0 0 0 0
 O         8.101652        5.347148       14.312803     0 0 0 0
 H         8.469772        6.257162       14.027171     0 0 0 0
 H         8.521932        4.586356       13.831757     0 0 0 0
 O         7.634354        8.987994       17.574471     0 0 0 0
 H         7.429147        8.208700       18.068064     0 0 0 0
 H         8.447232        9.347136       17.987906     0 0 0 0
 O         1.079501        0.676273       29.937204     0 0 0 0
 H         0.824585        0.462181       29.047428     0 0 0 0
 H         1.928962        1.136290       29.687500     0 0 0 0
 O         6.718184        1.520925       10.536990     0 0 0 0
 H         7.274149        2.325038       10.646774     0 0 0 0
 H         5.911782        1.970454       10.772370     0 0 0 0
 O         2.216267        3.558545       15.996855     0 0 0 0
 H         1.720819        2.964470       15.441538     0 0 0 0
 H         1.519537        4.089872       16.452473     0 0 0 0
 O         5.441372        1.929520       30.911568     0 0 0 0
 H         5.805284        2.799832       30.736973     0 0 0 0
 H         6.165827        1.312496       30.676104     0 0 0 0
 O         6.068470        6.577160        9.573476     0 0 0 0
 H         6.014111        5.812192       10.136293     0 0 0 0
 H         5.077415        6.794813        9.346979     0 0 0 0
 O         0.466524        9.824015       27.698261     0 0 0 0
 H         1.119608        9.099743       27.844141     0 0 0 0
 H         0.958424        0.434493       27.216835     0 0 0 0
 O         7.160066       10.022885       13.429427     0 0 0 0
 H         7.161118        9.192856       12.873811     0 0 0 0
 H         6.381510       10.003092       14.051830     0 0 0 0
 O         8.276951        8.915591       26.978083     0 0 0 0
 H         8.430514        8.039541       26.506430     0 0 0 0
 H         9.210873        9.245878       27.135384     0 0 0 0
 O         4.094783        9.598090       27.349100     0 0 0 0
 H         3.468985        8.878923       27.580172     0 0 0 0
 H         4.094341        9.682436       26.382292     0 0 0 0
 O         3.538710       10.100651       11.305652     0 0 0 0
 H         3.803394        9.289967       10.813445     0 0 0 0
 H         2.676801        9.657971       11.582199     0 0 0 0
 Cl        8.840552        3.205496       27.026691     0 0 0 0
 Cl        8.259179        4.170837       11.213303     0 0 0 0
