 DBCSR| CPU Multiplication driver                                           XSMM
 DBCSR| Multrec recursion limit                                              512
 DBCSR| Multiplication stack size                                           1000
 DBCSR| Maximum elements for images                                    UNLIMITED
 DBCSR| Multiplicative factor virtual images                                   1
 DBCSR| Use multiplication densification                                       T
 DBCSR| Multiplication size stacks                                             3
 DBCSR| Use memory pool for CPU allocation                                     F
 DBCSR| Number of 3D layers                                               SINGLE
 DBCSR| Use MPI memory allocation                                              F
 DBCSR| Use RMA algorithm                                                      F
 DBCSR| Use Communication thread                                               T
 DBCSR| Communication thread load                                             87
 DBCSR| MPI: My node id                                                        0
 DBCSR| MPI: Number of nodes                                                  64
 DBCSR| OMP: Current number of threads                                         1
 DBCSR| OMP: Max number of threads                                             1
 DBCSR| Split modifier for TAS multiplication algorithm                  1.0E+00


  **** **** ******  **  PROGRAM STARTED AT               2024-12-05 12:47:21.557
 ***** ** ***  *** **   PROGRAM STARTED ON                                 cu018
 **    ****   ******    PROGRAM STARTED BY                                 jxzhu
 ***** **    ** ** **   PROGRAM PROCESS ID                               2791904
  **** **  *******  **  PROGRAM STARTED IN /public/home/jxzhu/workspace/2024-Pt1
                                           11-OH-spike/02.mlp_cll/calc/iters-001
                                           /label-cp2k/tasks/000000

 CP2K| version string:                                          CP2K version 9.1
 CP2K| source code revision number:                                  git:d8d7100
 CP2K| cp2kflags: omp libint fftw3 libxc pexsi parallel mpi3 scalapack quip xsmm
 CP2K|             plumed2 spglib sirius libvori libbqb
 CP2K| is freely available from                            https://www.cp2k.org/
 CP2K| Program compiled at                          Fri Nov 22 23:34:09 CST 2024
 CP2K| Program compiled on                                                 mu011
 CP2K| Program compiled for                                                local
 CP2K| Data directory path                             /public/home/jxzhu/basis/
 CP2K| Input file name                                                 input.inp

 GLOBAL| Force Environment number                                              1
 GLOBAL| Basis set file name                                        BASIS_MOLOPT
 GLOBAL| Potential file name                                      GTH_POTENTIALS
 GLOBAL| MM Potential file name                                     MM_POTENTIAL
 GLOBAL| Coordinate file name                                      __STD_INPUT__
 GLOBAL| Method name                                                        CP2K
 GLOBAL| Project name                                                       cp2k
 GLOBAL| Run type                                                   ENERGY_FORCE
 GLOBAL| FFT library                                                       FFTW3
 GLOBAL| Diagonalization library                                       ScaLAPACK
 GLOBAL| Orthonormality check for eigenvectors                          DISABLED
 GLOBAL| Matrix multiplication library                                 ScaLAPACK
 GLOBAL| All-to-all communication in single precision                          F
 GLOBAL| FFTs using library dependent lengths                                  F
 GLOBAL| Grid backend                                                       AUTO
 GLOBAL| Global print level                                               MEDIUM
 GLOBAL| MPI I/O enabled                                                       T
 GLOBAL| Total number of message passing processes                            64
 GLOBAL| Number of threads for this process                                    1
 GLOBAL| This output is from process                                           0
 GLOBAL| Stack size for threads created by OpenMP (OMP_STACKSIZE)        default
 GLOBAL| CPU model name                 Intel(R) Xeon(R) Gold 6338 CPU @ 2.00GHz
 GLOBAL| CPUID                                                              1003

 MEMORY| system memory details [Kb]
 MEMORY|                        rank 0           min           max       average
 MEMORY| MemTotal            263407532     263407532     263407532     263407532
 MEMORY| MemFree             234573900     234573844     234573900     234573897
 MEMORY| Buffers                  2164          2164          2164          2164
 MEMORY| Cached                1463456       1463456       1463456       1463456
 MEMORY| Slab                  2141692       2141692       2141692       2141692
 MEMORY| SReclaimable           304412        304412        304412        304412
 MEMORY| MemLikelyFree       236343932     236343876     236343932     236343929


 *** Fundamental physical constants (SI units) ***

 *** Literature: B. J. Mohr and B. N. Taylor,
 ***             CODATA recommended values of the fundamental physical
 ***             constants: 2006, Web Version 5.1
 ***             http://physics.nist.gov/constants

 Speed of light in vacuum [m/s]                             2.99792458000000E+08
 Magnetic constant or permeability of vacuum [N/A**2]       1.25663706143592E-06
 Electric constant or permittivity of vacuum [F/m]          8.85418781762039E-12
 Planck constant (h) [J*s]                                  6.62606896000000E-34
 Planck constant (h-bar) [J*s]                              1.05457162825177E-34
 Elementary charge [C]                                      1.60217648700000E-19
 Electron mass [kg]                                         9.10938215000000E-31
 Electron g factor [ ]                                     -2.00231930436220E+00
 Proton mass [kg]                                           1.67262163700000E-27
 Fine-structure constant                                    7.29735253760000E-03
 Rydberg constant [1/m]                                     1.09737315685270E+07
 Avogadro constant [1/mol]                                  6.02214179000000E+23
 Boltzmann constant [J/K]                                   1.38065040000000E-23
 Atomic mass unit [kg]                                      1.66053878200000E-27
 Bohr radius [m]                                            5.29177208590000E-11

 *** Conversion factors ***

 [u] -> [a.u.]                                              1.82288848426455E+03
 [Angstrom] -> [Bohr] = [a.u.]                              1.88972613288564E+00
 [a.u.] = [Bohr] -> [Angstrom]                              5.29177208590000E-01
 [a.u.] -> [s]                                              2.41888432650478E-17
 [a.u.] -> [fs]                                             2.41888432650478E-02
 [a.u.] -> [J]                                              4.35974393937059E-18
 [a.u.] -> [N]                                              8.23872205491840E-08
 [a.u.] -> [K]                                              3.15774647902944E+05
 [a.u.] -> [kJ/mol]                                         2.62549961709828E+03
 [a.u.] -> [kcal/mol]                                       6.27509468713739E+02
 [a.u.] -> [Pa]                                             2.94210107994716E+13
 [a.u.] -> [bar]                                            2.94210107994716E+08
 [a.u.] -> [atm]                                            2.90362800883016E+08
 [a.u.] -> [eV]                                             2.72113838565563E+01
 [a.u.] -> [Hz]                                             6.57968392072181E+15
 [a.u.] -> [1/cm] (wave numbers)                            2.19474631370540E+05
 [a.u./Bohr**2] -> [1/cm]                                   5.14048714338585E+03
 

 CELL_TOP| Volume [angstrom^3]:                                      8003.518946
 CELL_TOP| Vector a [angstrom    16.869     0.000     0.000   |a| =    16.868730
 CELL_TOP| Vector b [angstrom     0.000    14.609     0.000   |b| =    14.608750
 CELL_TOP| Vector c [angstrom     0.000     0.000    32.478   |c| =    32.477720
 CELL_TOP| Angle (b,c), alpha [degree]:                                90.000000
 CELL_TOP| Angle (a,c), beta  [degree]:                                90.000000
 CELL_TOP| Angle (a,b), gamma [degree]:                                90.000000
 CELL_TOP| Numerically orthorhombic:                                         YES

 GENERATE|  Preliminary Number of Bonds generated:                             0
 GENERATE|  Achieved consistency in connectivity generation.

 CELL| Volume [angstrom^3]:                                          8003.518946
 CELL| Vector a [angstrom]:      16.869     0.000     0.000   |a| =    16.868730
 CELL| Vector b [angstrom]:       0.000    14.609     0.000   |b| =    14.608750
 CELL| Vector c [angstrom]:       0.000     0.000    32.478   |c| =    32.477720
 CELL| Angle (b,c), alpha [degree]:                                    90.000000
 CELL| Angle (a,c), beta  [degree]:                                    90.000000
 CELL| Angle (a,b), gamma [degree]:                                    90.000000
 CELL| Numerically orthorhombic:                                             YES

 CELL_REF| Volume [angstrom^3]:                                      8003.518946
 CELL_REF| Vector a [angstrom    16.869     0.000     0.000   |a| =    16.868730
 CELL_REF| Vector b [angstrom     0.000    14.609     0.000   |b| =    14.608750
 CELL_REF| Vector c [angstrom     0.000     0.000    32.478   |c| =    32.477720
 CELL_REF| Angle (b,c), alpha [degree]:                                90.000000
 CELL_REF| Angle (a,c), beta  [degree]:                                90.000000
 CELL_REF| Angle (a,b), gamma [degree]:                                90.000000
 CELL_REF| Numerically orthorhombic:                                         YES

 *******************************************************************************
 *******************************************************************************
 **                                                                           **
 **     #####                         ##              ##                      **
 **    ##   ##            ##          ##              ##                      **
 **   ##     ##                       ##            ######                    **
 **   ##     ##  ##   ##  ##   #####  ##  ##   ####   ##    #####    #####    **
 **   ##     ##  ##   ##  ##  ##      ## ##   ##      ##   ##   ##  ##   ##   **
 **   ##  ## ##  ##   ##  ##  ##      ####     ###    ##   ######   ######    **
 **    ##  ###   ##   ##  ##  ##      ## ##      ##   ##   ##       ##        **
 **     #######   #####   ##   #####  ##  ##  ####    ##    #####   ##        **
 **           ##                                                    ##        **
 **                                                                           **
 **                                                ... make the atoms dance   **
 **                                                                           **
 **            Copyright (C) by CP2K developers group (2000-2021)             **
 **                      J. Chem. Phys. 152, 194103 (2020)                    **
 **                                                                           **
 *******************************************************************************

 DFT| Spin restricted Kohn-Sham (RKS) calculation                            RKS
 DFT| Multiplicity                                                             1
 DFT| Number of spin states                                                    1
 DFT| Charge                                                                   0
 DFT| Self-interaction correction (SIC)                                       NO
 DFT| Cutoffs: density                                              1.000000E-10
 DFT|          gradient                                             1.000000E-10
 DFT|          tau                                                  1.000000E-10
 DFT|          cutoff_smoothing_range                               0.000000E+00
 DFT| XC density smoothing                                                  NONE
 DFT| XC derivatives                                                          PW
 FUNCTIONAL| ROUTINE=NEW
 FUNCTIONAL| PBE:
 FUNCTIONAL| J.P.Perdew, K.Burke, M.Ernzerhof, Phys. Rev. Letter, vol. 77, n 18,
 FUNCTIONAL|  pp. 3865-3868, (1996){spin unpolarized}                           
 vdW POTENTIAL|                                                   Pair Potential
 vdW POTENTIAL|          DFT-D3 (Version 3.1)
 vdW POTENTIAL|          Potential Form: S. Grimme et al, JCP 132: 154104 (2010)
 vdW POTENTIAL|          Zero Damping
 vdW POTENTIAL|          Cutoff Radius [Bohr]:                             20.00
 vdW POTENTIAL|          s6 Scaling Factor:                               1.0000
 vdW POTENTIAL|          sr6 Scaling Factor:                              1.2170
 vdW POTENTIAL|          s8 Scaling Factor:                               0.7220
 vdW POTENTIAL|          Cutoff for CN calculation:                   0.1000E-05

 QS| Method:                                                                 GPW
 QS| Density plane wave grid type                        NON-SPHERICAL FULLSPACE
 QS| Number of grid levels:                                                    5
 QS| Density cutoff [a.u.]:                                                400.0
 QS| Multi grid cutoff [a.u.]: 1) grid level                               400.0
 QS|                           2) grid level                               133.3
 QS|                           3) grid level                                44.4
 QS|                           4) grid level                                14.8
 QS|                           5) grid level                                 4.9
 QS| Grid level progression factor:                                          3.0
 QS| Relative density cutoff [a.u.]:                                        20.0
 QS| Interaction thresholds: eps_pgf_orb:                                1.0E-06
 QS|                         eps_filter_matrix:                          0.0E+00
 QS|                         eps_core_charge:                            1.0E-14
 QS|                         eps_rho_gspace:                             1.0E-12
 QS|                         eps_rho_rspace:                             1.0E-12
 QS|                         eps_gvg_rspace:                             1.0E-06
 QS|                         eps_ppl:                                    1.0E-02
 QS|                         eps_ppnl:                                   1.0E-08


 ATOMIC KIND INFORMATION

  1. Atomic kind: H                                     Number of atoms:     296

     Orbital Basis Set                                        DZVP-MOLOPT-SR-GTH

       Number of orbital shell sets:                                           1
       Number of orbital shells:                                               3
       Number of primitive Cartesian functions:                                5
       Number of Cartesian basis functions:                                    5
       Number of spherical basis functions:                                    5
       Norm type:                                                              2

       Normalised Cartesian orbitals:

                        Set   Shell   Orbital            Exponent    Coefficient

                          1       1    2s               10.068468      -0.133023
                                                         2.680223      -0.177618
                                                         0.791502      -0.258419
                                                         0.239116      -0.107525
                                                         0.082193      -0.014019

                          1       2    3s               10.068468       0.344673
                                                         2.680223       1.819821
                                                         0.791502      -0.999069
                                                         0.239116       0.017430
                                                         0.082193       0.082660

                          1       3    3px              10.068468       0.155326
                                                         2.680223       0.367157
                                                         0.791502       0.311480
                                                         0.239116       0.080105
                                                         0.082193       0.033440
                          1       3    3py              10.068468       0.155326
                                                         2.680223       0.367157
                                                         0.791502       0.311480
                                                         0.239116       0.080105
                                                         0.082193       0.033440
                          1       3    3pz              10.068468       0.155326
                                                         2.680223       0.367157
                                                         0.791502       0.311480
                                                         0.239116       0.080105
                                                         0.082193       0.033440

       Atomic covalent radius [Angstrom]:                                  0.320

       Atomic van der Waals radius [Angstrom]:                             1.090

     GTH Potential information for                                    GTH-PBE-q1

       Description:                       Goedecker-Teter-Hutter pseudopotential
                                           Goedecker et al., PRB 54, 1703 (1996)
                                          Hartwigsen et al., PRB 58, 3641 (1998)
                                                      Krack, TCA 114, 145 (2005)

       Gaussian exponent of the core charge distribution:              12.500000
       Electronic configuration (s p d ...):                                   1

       Parameters of the local part of the GTH pseudopotential:

                          rloc        C1          C2          C3          C4
                        0.200000   -4.178900    0.724463

  2. Atomic kind: O                                     Number of atoms:     151

     Orbital Basis Set                                        DZVP-MOLOPT-SR-GTH

       Number of orbital shell sets:                                           1
       Number of orbital shells:                                               5
       Number of primitive Cartesian functions:                                5
       Number of Cartesian basis functions:                                   14
       Number of spherical basis functions:                                   13
       Norm type:                                                              2

       Normalised Cartesian orbitals:

                        Set   Shell   Orbital            Exponent    Coefficient

                          1       1    2s               10.389228       0.396646
                                                         3.849621       0.208811
                                                         1.388401      -0.301641
                                                         0.496955      -0.274061
                                                         0.162492      -0.033677

                          1       2    3s               10.389228       0.303673
                                                         3.849621       0.240943
                                                         1.388401      -0.313066
                                                         0.496955      -0.043055
                                                         0.162492       0.213991

                          1       3    3px              10.389228      -1.530415
                                                         3.849621      -1.371928
                                                         1.388401      -0.761951
                                                         0.496955      -0.253695
                                                         0.162492      -0.035541
                          1       3    3py              10.389228      -1.530415
                                                         3.849621      -1.371928
                                                         1.388401      -0.761951
                                                         0.496955      -0.253695
                                                         0.162492      -0.035541
                          1       3    3pz              10.389228      -1.530415
                                                         3.849621      -1.371928
                                                         1.388401      -0.761951
                                                         0.496955      -0.253695
                                                         0.162492      -0.035541

                          1       4    4px              10.389228      -0.565392
                                                         3.849621      -0.038231
                                                         1.388401      -0.382373
                                                         0.496955       0.179070
                                                         0.162492       0.122714
                          1       4    4py              10.389228      -0.565392
                                                         3.849621      -0.038231
                                                         1.388401      -0.382373
                                                         0.496955       0.179070
                                                         0.162492       0.122714
                          1       4    4pz              10.389228      -0.565392
                                                         3.849621      -0.038231
                                                         1.388401      -0.382373
                                                         0.496955       0.179070
                                                         0.162492       0.122714

                          1       5    4dx2             10.389228       1.867377
                                                         3.849621       0.670994
                                                         1.388401       1.353441
                                                         0.496955       0.273538
                                                         0.162492       0.006620
                          1       5    4dxy             10.389228       3.234392
                                                         3.849621       1.162195
                                                         1.388401       2.344229
                                                         0.496955       0.473781
                                                         0.162492       0.011466
                          1       5    4dxz             10.389228       3.234392
                                                         3.849621       1.162195
                                                         1.388401       2.344229
                                                         0.496955       0.473781
                                                         0.162492       0.011466
                          1       5    4dy2             10.389228       1.867377
                                                         3.849621       0.670994
                                                         1.388401       1.353441
                                                         0.496955       0.273538
                                                         0.162492       0.006620
                          1       5    4dyz             10.389228       3.234392
                                                         3.849621       1.162195
                                                         1.388401       2.344229
                                                         0.496955       0.473781
                                                         0.162492       0.011466
                          1       5    4dz2             10.389228       1.867377
                                                         3.849621       0.670994
                                                         1.388401       1.353441
                                                         0.496955       0.273538
                                                         0.162492       0.006620

       Atomic covalent radius [Angstrom]:                                  0.730

       Atomic van der Waals radius [Angstrom]:                             1.520

     GTH Potential information for                                    GTH-PBE-q6

       Description:                       Goedecker-Teter-Hutter pseudopotential
                                           Goedecker et al., PRB 54, 1703 (1996)
                                          Hartwigsen et al., PRB 58, 3641 (1998)
                                                      Krack, TCA 114, 145 (2005)

       Gaussian exponent of the core charge distribution:               8.360253
       Electronic configuration (s p d ...):                               2   4

       Parameters of the local part of the GTH pseudopotential:

                          rloc        C1          C2          C3          C4
                        0.244554  -16.667215    2.487311

       Parameters of the non-local part of the GTH pseudopotential:

                   l      r(l)      h(i,j,l)

                   0    0.220956   18.337458
                   1    0.211332

  3. Atomic kind: Pt                                    Number of atoms:     216

     Orbital Basis Set                      DZVP-A5-Q10-323-MOL-T1-DERIVED_SET-1

       Number of orbital shell sets:                                           1
       Number of orbital shells:                                               6
       Number of primitive Cartesian functions:                                5
       Number of Cartesian basis functions:                                   23
       Number of spherical basis functions:                                   20
       Norm type:                                                              2

       Normalised Cartesian orbitals:

                        Set   Shell   Orbital            Exponent    Coefficient

                          1       1    2s                2.521825       0.177473
                                                         1.453920      -0.063399
                                                         0.614053      -0.407089
                                                         0.232656       0.262254
                                                         0.074788       0.047371

                          1       2    3s                2.521825      -0.049056
                                                         1.453920       0.044904
                                                         0.614053      -0.009756
                                                         0.232656      -0.144709
                                                         0.074788       0.144085

                          1       3    3px               2.521825      -0.317572
                                                         1.453920       0.534826
                                                         0.614053      -0.489458
                                                         0.232656       0.245631
                                                         0.074788       0.018221
                          1       3    3py               2.521825      -0.317572
                                                         1.453920       0.534826
                                                         0.614053      -0.489458
                                                         0.232656       0.245631
                                                         0.074788       0.018221
                          1       3    3pz               2.521825      -0.317572
                                                         1.453920       0.534826
                                                         0.614053      -0.489458
                                                         0.232656       0.245631
                                                         0.074788       0.018221

                          1       4    4dx2              2.521825       3.008522
                                                         1.453920      -1.224251
                                                         0.614053       0.225691
                                                         0.232656       0.125144
                                                         0.074788      -0.015348
                          1       4    4dxy              2.521825       5.210912
                                                         1.453920      -2.120465
                                                         0.614053       0.390909
                                                         0.232656       0.216756
                                                         0.074788      -0.026584
                          1       4    4dxz              2.521825       5.210912
                                                         1.453920      -2.120465
                                                         0.614053       0.390909
                                                         0.232656       0.216756
                                                         0.074788      -0.026584
                          1       4    4dy2              2.521825       3.008522
                                                         1.453920      -1.224251
                                                         0.614053       0.225691
                                                         0.232656       0.125144
                                                         0.074788      -0.015348
                          1       4    4dyz              2.521825       5.210912
                                                         1.453920      -2.120465
                                                         0.614053       0.390909
                                                         0.232656       0.216756
                                                         0.074788      -0.026584
                          1       4    4dz2              2.521825       3.008522
                                                         1.453920      -1.224251
                                                         0.614053       0.225691
                                                         0.232656       0.125144
                                                         0.074788      -0.015348

                          1       5    5dx2              2.521825       0.698026
                                                         1.453920      -1.511486
                                                         0.614053      -0.335394
                                                         0.232656      -0.025564
                                                         0.074788      -0.002699
                          1       5    5dxy              2.521825       1.209017
                                                         1.453920      -2.617970
                                                         0.614053      -0.580920
                                                         0.232656      -0.044277
                                                         0.074788      -0.004674
                          1       5    5dxz              2.521825       1.209017
                                                         1.453920      -2.617970
                                                         0.614053      -0.580920
                                                         0.232656      -0.044277
                                                         0.074788      -0.004674
                          1       5    5dy2              2.521825       0.698026
                                                         1.453920      -1.511486
                                                         0.614053      -0.335394
                                                         0.232656      -0.025564
                                                         0.074788      -0.002699
                          1       5    5dyz              2.521825       1.209017
                                                         1.453920      -2.617970
                                                         0.614053      -0.580920
                                                         0.232656      -0.044277
                                                         0.074788      -0.004674
                          1       5    5dz2              2.521825       0.698026
                                                         1.453920      -1.511486
                                                         0.614053      -0.335394
                                                         0.232656      -0.025564
                                                         0.074788      -0.002699

                          1       6    6dx2              2.521825       0.831079
                                                         1.453920      -0.709226
                                                         0.614053      -0.137351
                                                         0.232656       0.068642
                                                         0.074788       0.011745
                          1       6    6dxy              2.521825       1.439472
                                                         1.453920      -1.228415
                                                         0.614053      -0.237899
                                                         0.232656       0.118891
                                                         0.074788       0.020343
                          1       6    6dxz              2.521825       1.439472
                                                         1.453920      -1.228415
                                                         0.614053      -0.237899
                                                         0.232656       0.118891
                                                         0.074788       0.020343
                          1       6    6dy2              2.521825       0.831079
                                                         1.453920      -0.709226
                                                         0.614053      -0.137351
                                                         0.232656       0.068642
                                                         0.074788       0.011745
                          1       6    6dyz              2.521825       1.439472
                                                         1.453920      -1.228415
                                                         0.614053      -0.237899
                                                         0.232656       0.118891
                                                         0.074788       0.020343
                          1       6    6dz2              2.521825       0.831079
                                                         1.453920      -0.709226
                                                         0.614053      -0.137351
                                                         0.232656       0.068642
                                                         0.074788       0.011745

       Atomic covalent radius [Angstrom]:                                  1.300

       Atomic van der Waals radius [Angstrom]:                             1.750

     GTH Potential information for                                   GTH-PBE-q10

       Description:                       Goedecker-Teter-Hutter pseudopotential
                                           Goedecker et al., PRB 54, 1703 (1996)
                                          Hartwigsen et al., PRB 58, 3641 (1998)
                                                      Krack, TCA 114, 145 (2005)

       Gaussian exponent of the core charge distribution:               1.317676
       Electronic configuration (s p d ...):                           1   0   9

       Parameters of the local part of the GTH pseudopotential:

                          rloc        C1          C2          C3          C4
                        0.616000   11.313635

       Parameters of the non-local part of the GTH pseudopotential:

                   l      r(l)      h(i,j,l)

                   0    0.550904    4.733491   -1.784594
                                   -1.784594    2.303901
                   1    0.674138    2.534798   -1.778066
                                   -1.778066    2.103836
                   2    0.457392   -7.264011    2.558665
                                    2.558665   -2.901253


 MOLECULE KIND INFORMATION


 All atoms are their own molecule, skipping detailed information


 TOTAL NUMBERS AND MAXIMUM NUMBERS

  Total number of            - Atomic kinds:                                   3
                             - Atoms:                                        663
                             - Shell sets:                                   663
                             - Shells:                                      2939
                             - Primitive Cartesian functions:               3315
                             - Cartesian basis functions:                   8562
                             - Spherical basis functions:                   7763

  Maximum angular momentum of- Orbital basis functions:                        2
                             - Local part of the GTH pseudopotential:          2
                             - Non-local part of the GTH pseudopotential:      4


 MODULE QUICKSTEP:  ATOMIC COORDINATES IN angstrom

 Atom  Kind  Element       X           Y           Z          Z(eff)       Mass
    1   1 H    1       4.110180    7.679170    8.655810       1.0000      1.0079
    2   1 H    1       4.262970    6.089350    8.615620       1.0000      1.0079
    3   1 H    1       9.442950    5.561560    8.376610       1.0000      1.0079
    4   1 H    1       0.440801    5.188030    9.684560       1.0000      1.0079
    5   1 H    1       0.040496    6.484420    8.866170       1.0000      1.0079
    6   1 H    1      16.777600    8.770830    7.927540       1.0000      1.0079
    7   1 H    1       1.052570    9.024380    9.068490       1.0000      1.0079
    8   1 H    1      13.907700   13.591900    9.178220       1.0000      1.0079
    9   1 H    1      13.810700    0.517927    9.652020       1.0000      1.0079
   10   1 H    1      11.779700    5.341630    8.820420       1.0000      1.0079
   11   1 H    1      11.201600    6.728290    8.834960       1.0000      1.0079
   12   1 H    1       2.370640    1.731240    8.013660       1.0000      1.0079
   13   1 H    1       4.807560    0.703963    8.545340       1.0000      1.0079
   14   1 H    1       8.586510    2.225060    9.338660       1.0000      1.0079
   15   1 H    1       8.972780    3.486670    8.493410       1.0000      1.0079
   16   1 H    1       1.832050    5.222880    7.997960       1.0000      1.0079
   17   1 H    1       2.641670    3.879880    8.509560       1.0000      1.0079
   18   1 H    1       7.830590   11.894400    9.051900       1.0000      1.0079
   19   1 H    1       7.550570   10.737700    7.885380       1.0000      1.0079
   20   1 H    1      10.263500    8.426130    9.268240       1.0000      1.0079
   21   1 H    1      11.304200    8.899080    8.133870       1.0000      1.0079
   22   1 H    1       1.176500    6.105390   14.573600       1.0000      1.0079
   23   1 H    1       1.693480    4.595320   14.777900       1.0000      1.0079
   24   1 H    1      16.123700   10.009000    9.085620       1.0000      1.0079
   25   1 H    1      15.891300   11.369100    8.281240       1.0000      1.0079
   26   1 H    1      14.449000   13.640400   13.309700       1.0000      1.0079
   27   1 H    1      15.008400   12.296100   13.865400       1.0000      1.0079
   28   1 H    1       5.743040    1.061980   14.618700       1.0000      1.0079
   29   1 H    1       7.053430    1.520640   13.924600       1.0000      1.0079
   30   1 H    1      10.845500    2.119710    8.991770       1.0000      1.0079
   31   1 H    1      11.891000    1.231930    8.289870       1.0000      1.0079
   32   1 H    1       2.766640    9.603710    8.050100       1.0000      1.0079
   33   1 H    1       3.687150    9.762710    9.462820       1.0000      1.0079
   34   1 H    1       5.982250   10.797500    9.555240       1.0000      1.0079
   35   1 H    1       5.194150   10.521900   11.033700       1.0000      1.0079
   36   1 H    1       2.116450    1.306710    9.570910       1.0000      1.0079
   37   1 H    1       0.622282   14.069300   10.868700       1.0000      1.0079
   38   1 H    1      16.211000   12.265100   10.563400       1.0000      1.0079
   39   1 H    1      16.263400   12.909500   11.999400       1.0000      1.0079
   40   1 H    1       7.842560    5.942360    8.219560       1.0000      1.0079
   41   1 H    1       6.205160    7.035280    8.496400       1.0000      1.0079
   42   1 H    1       8.007280    7.986420    9.139360       1.0000      1.0079
   43   1 H    1       8.308400    9.508350    9.512480       1.0000      1.0079
   44   1 H    1      15.918200   14.368700    8.520930       1.0000      1.0079
   45   1 H    1       2.083430   14.224300   10.825000       1.0000      1.0079
   46   1 H    1      13.966500    5.695980    7.915580       1.0000      1.0079
   47   1 H    1      13.962000    4.513280    9.087900       1.0000      1.0079
   48   1 H    1       2.418910   12.262300    8.290920       1.0000      1.0079
   49   1 H    1       1.077720   13.185400    8.582760       1.0000      1.0079
   50   1 H    1      16.591400    3.218490    8.047160       1.0000      1.0079
   51   1 H    1      16.722000    1.139760    8.143800       1.0000      1.0079
   52   1 H    1      11.088700    7.580000   12.423000       1.0000      1.0079
   53   1 H    1      12.478100    7.636780   11.794800       1.0000      1.0079
   54   1 H    1       6.584040    1.263680   10.031600       1.0000      1.0079
   55   1 H    1       7.749870    0.293267    9.874290       1.0000      1.0079
   56   1 H    1       9.887980    4.924030   12.023500       1.0000      1.0079
   57   1 H    1      10.833000    5.578980   10.894600       1.0000      1.0079
   58   1 H    1       9.579100   13.490200    9.717080       1.0000      1.0079
   59   1 H    1       8.790340   13.463200    8.291280       1.0000      1.0079
   60   1 H    1       4.005220    6.688020   10.865200       1.0000      1.0079
   61   1 H    1       5.071400    6.208010   11.924900       1.0000      1.0079
   62   1 H    1       5.219550    2.608380   13.383000       1.0000      1.0079
   63   1 H    1       4.302310    2.648060   12.149500       1.0000      1.0079
   64   1 H    1       2.442440    6.914380   12.163600       1.0000      1.0079
   65   1 H    1       1.300560    7.914730   12.144800       1.0000      1.0079
   66   1 H    1      13.573600   11.545700    8.948750       1.0000      1.0079
   67   1 H    1      12.675700   12.460400    8.052490       1.0000      1.0079
   68   1 H    1      12.491500    3.762320   16.655900       1.0000      1.0079
   69   1 H    1      12.371800    3.633720   15.117700       1.0000      1.0079
   70   1 H    1       4.433060   11.654600    8.765470       1.0000      1.0079
   71   1 H    1       4.699790   13.637900    8.237060       1.0000      1.0079
   72   1 H    1      14.234600    4.505600   13.378300       1.0000      1.0079
   73   1 H    1      14.983100    5.800510   13.454000       1.0000      1.0079
   74   1 H    1      16.065100    4.818980   11.529700       1.0000      1.0079
   75   1 H    1       0.576977    5.484250   11.721000       1.0000      1.0079
   76   1 H    1      14.710000    8.441670   11.654300       1.0000      1.0079
   77   1 H    1      16.137800    9.215040   11.963000       1.0000      1.0079
   78   1 H    1      15.015200   10.100600   13.547000       1.0000      1.0079
   79   1 H    1      15.459700   10.346300   15.091300       1.0000      1.0079
   80   1 H    1       4.879340    8.636690   12.527600       1.0000      1.0079
   81   1 H    1       6.222540    9.371090   12.500300       1.0000      1.0079
   82   1 H    1      13.308100    2.632160    9.522130       1.0000      1.0079
   83   1 H    1      14.879200    2.823820    9.087990       1.0000      1.0079
   84   1 H    1       1.233970   10.403400   12.798100       1.0000      1.0079
   85   1 H    1       1.356500   10.626700   11.251400       1.0000      1.0079
   86   1 H    1       4.265930   13.472200   12.247900       1.0000      1.0079
   87   1 H    1       4.494020   12.980100   10.706500       1.0000      1.0079
   88   1 H    1      11.815500    5.892500   14.458500       1.0000      1.0079
   89   1 H    1      11.962500    5.134340   13.032100       1.0000      1.0079
   90   1 H    1       6.268550   11.435900   15.473100       1.0000      1.0079
   91   1 H    1       7.186180   10.525600   16.540400       1.0000      1.0079
   92   1 H    1       3.057600    5.870590   15.736700       1.0000      1.0079
   93   1 H    1       3.362820    6.466180   17.122500       1.0000      1.0079
   94   1 H    1       8.951380    2.872680   12.326500       1.0000      1.0079
   95   1 H    1       8.997740    3.537940   10.877200       1.0000      1.0079
   96   1 H    1      15.661600    1.416480   15.500500       1.0000      1.0079
   97   1 H    1      14.415800    2.402730   15.579200       1.0000      1.0079
   98   1 H    1      13.195100   13.210900   17.702300       1.0000      1.0079
   99   1 H    1      13.192500   14.648300   16.931900       1.0000      1.0079
  100   1 H    1       3.950310   10.881600   14.663600       1.0000      1.0079
  101   1 H    1       5.176390   10.594600   13.805800       1.0000      1.0079
  102   1 H    1       4.024730    2.123560   10.016100       1.0000      1.0079
  103   1 H    1       4.479030    0.942467   10.981200       1.0000      1.0079
  104   1 H    1      14.196900    2.403210   11.731900       1.0000      1.0079
  105   1 H    1      15.366700    2.086350   12.724300       1.0000      1.0079
  106   1 H    1      11.729700   10.294500   11.845100       1.0000      1.0079
  107   1 H    1      11.892300   11.495300   10.898000       1.0000      1.0079
  108   1 H    1      13.227200    0.709648   12.735400       1.0000      1.0079
  109   1 H    1      12.269700   14.508100   13.603900       1.0000      1.0079
  110   1 H    1       8.719490   12.074700   13.676500       1.0000      1.0079
  111   1 H    1       8.412240   12.050800   15.217800       1.0000      1.0079
  112   1 H    1       5.807400    4.555430   12.900500       1.0000      1.0079
  113   1 H    1       7.316990    4.758720   12.237500       1.0000      1.0079
  114   1 H    1      15.730600    7.711450   15.030400       1.0000      1.0079
  115   1 H    1      15.522800    7.820580   13.366800       1.0000      1.0079
  116   1 H    1       1.932170   10.420200   15.247800       1.0000      1.0079
  117   1 H    1       1.566320   11.807500   15.086100       1.0000      1.0079
  118   1 H    1      10.888300    0.162698   20.516000       1.0000      1.0079
  119   1 H    1       9.715230    0.943530   20.146700       1.0000      1.0079
  120   1 H    1       7.842610    8.363180   13.069300       1.0000      1.0079
  121   1 H    1       8.148340    8.529540   11.466600       1.0000      1.0079
  122   1 H    1      11.274100    0.575663   10.513200       1.0000      1.0079
  123   1 H    1      11.490600   14.228900   11.735400       1.0000      1.0079
  124   1 H    1      11.223500    0.586199   15.894300       1.0000      1.0079
  125   1 H    1      12.246300    1.685410   15.808300       1.0000      1.0079
  126   1 H    1      13.133900    7.609840   16.168900       1.0000      1.0079
  127   1 H    1      14.091800    6.485990   16.433600       1.0000      1.0079
  128   1 H    1       7.936570    1.324410   11.816600       1.0000      1.0079
  129   1 H    1       9.361380    0.745242   12.082000       1.0000      1.0079
  130   1 H    1       4.789640   12.934900   14.323900       1.0000      1.0079
  131   1 H    1       3.636750   13.951200   14.514000       1.0000      1.0079
  132   1 H    1       0.565099    1.561800   11.915900       1.0000      1.0079
  133   1 H    1       0.391316    3.155130   11.823900       1.0000      1.0079
  134   1 H    1       8.686500   14.501000   16.666700       1.0000      1.0079
  135   1 H    1       9.292940   13.999800   15.288800       1.0000      1.0079
  136   1 H    1      15.705000    5.261170   17.948000       1.0000      1.0079
  137   1 H    1      15.013500    5.415120   19.399100       1.0000      1.0079
  138   1 H    1       7.154360    6.918380   15.163100       1.0000      1.0079
  139   1 H    1       7.203110    6.323990   13.652600       1.0000      1.0079
  140   1 H    1       6.006070    3.354430   15.743600       1.0000      1.0079
  141   1 H    1       6.757140    3.517700   16.982100       1.0000      1.0079
  142   1 H    1       7.183670    9.201990   18.730400       1.0000      1.0079
  143   1 H    1       6.800140    8.323270   17.440000       1.0000      1.0079
  144   1 H    1       0.857001    7.079500   20.622700       1.0000      1.0079
  145   1 H    1       0.048240    5.858300   20.076800       1.0000      1.0079
  146   1 H    1      16.591800   14.278700   18.928300       1.0000      1.0079
  147   1 H    1      15.194800   14.074800   18.087700       1.0000      1.0079
  148   1 H    1       2.378530    1.507860   14.982200       1.0000      1.0079
  149   1 H    1       1.422600    0.311452   15.231600       1.0000      1.0079
  150   1 H    1       3.928230    3.926480   19.397100       1.0000      1.0079
  151   1 H    1       3.683280    4.066630   21.047500       1.0000      1.0079
  152   1 H    1      15.152300    2.300510   17.610200       1.0000      1.0079
  153   1 H    1      15.385800    3.299800   18.862200       1.0000      1.0079
  154   1 H    1       6.527920    5.849780   16.733300       1.0000      1.0079
  155   1 H    1       5.323430    6.669750   16.282200       1.0000      1.0079
  156   1 H    1      13.923200    6.487170   11.754300       1.0000      1.0079
  157   1 H    1      14.009600    6.561160   10.164200       1.0000      1.0079
  158   1 H    1       7.071950   13.387600   18.514400       1.0000      1.0079
  159   1 H    1       6.678140   12.908000   17.025900       1.0000      1.0079
  160   1 H    1       2.790700   13.075600   16.911500       1.0000      1.0079
  161   1 H    1       1.361230   12.759600   17.450400       1.0000      1.0079
  162   1 H    1      12.123200   11.507800   17.349000       1.0000      1.0079
  163   1 H    1      12.401500   11.492100   18.974000       1.0000      1.0079
  164   1 H    1      11.620500   10.388800   15.529400       1.0000      1.0079
  165   1 H    1      10.306700   11.406400   15.448600       1.0000      1.0079
  166   1 H    1       9.384530    6.901270   14.664500       1.0000      1.0079
  167   1 H    1      10.229200    7.793080   15.652700       1.0000      1.0079
  168   1 H    1       8.400930   10.534000   12.295600       1.0000      1.0079
  169   1 H    1       9.431130   11.506700   11.570000       1.0000      1.0079
  170   1 H    1       3.807130    4.184580   17.230700       1.0000      1.0079
  171   1 H    1       2.846790    2.908720   17.855000       1.0000      1.0079
  172   1 H    1       8.422260    2.293060   18.784900       1.0000      1.0079
  173   1 H    1       7.444420    1.874550   19.993600       1.0000      1.0079
  174   1 H    1      15.880600    9.049900   21.209200       1.0000      1.0079
  175   1 H    1      15.078900    9.403170   19.801100       1.0000      1.0079
  176   1 H    1       0.708965    5.093380   24.167400       1.0000      1.0079
  177   1 H    1       0.733609    6.632160   23.908800       1.0000      1.0079
  178   1 H    1      10.367400    9.691480   16.715900       1.0000      1.0079
  179   1 H    1       8.976490    9.010070   17.375100       1.0000      1.0079
  180   1 H    1       0.196138   11.792300   19.225300       1.0000      1.0079
  181   1 H    1       1.637070   11.818600   19.831600       1.0000      1.0079
  182   1 H    1      16.024200   13.968600   14.485500       1.0000      1.0079
  183   1 H    1      16.294500   14.347300   16.106700       1.0000      1.0079
  184   1 H    1       8.472780    2.087950   16.591400       1.0000      1.0079
  185   1 H    1       8.875870    3.721750   16.724400       1.0000      1.0079
  186   1 H    1       2.904050    3.269710   13.695400       1.0000      1.0079
  187   1 H    1       1.324820    2.927590   13.684900       1.0000      1.0079
  188   1 H    1      15.479300    4.130540   16.094000       1.0000      1.0079
  189   1 H    1      16.281400    5.455090   15.729500       1.0000      1.0079
  190   1 H    1       3.840740    0.422404   18.057400       1.0000      1.0079
  191   1 H    1       5.093910   14.045600   18.137300       1.0000      1.0079
  192   1 H    1       0.559788    1.019840   20.511800       1.0000      1.0079
  193   1 H    1      16.511600    1.646880   19.233700       1.0000      1.0079
  194   1 H    1       8.644510   13.445300   20.419300       1.0000      1.0079
  195   1 H    1       8.157660   11.968200   20.247000       1.0000      1.0079
  196   1 H    1       5.534630    4.872700   19.732900       1.0000      1.0079
  197   1 H    1       7.056990    5.719260   19.507500       1.0000      1.0079
  198   1 H    1      10.405500    5.042570   17.399800       1.0000      1.0079
  199   1 H    1       9.833460    5.994400   16.252700       1.0000      1.0079
  200   1 H    1      12.653700    0.001210   19.547000       1.0000      1.0079
  201   1 H    1      12.382500   13.924700   20.815100       1.0000      1.0079
  202   1 H    1      12.293300    8.547400   14.237000       1.0000      1.0079
  203   1 H    1      13.395400    9.430230   14.637600       1.0000      1.0079
  204   1 H    1      10.355100    8.798420   18.755600       1.0000      1.0079
  205   1 H    1       9.792800    7.908860   19.926200       1.0000      1.0079
  206   1 H    1      10.318100    3.743130   21.726800       1.0000      1.0079
  207   1 H    1       9.466400    3.097490   20.404800       1.0000      1.0079
  208   1 H    1       4.236490    1.448160   23.238800       1.0000      1.0079
  209   1 H    1       3.228460    1.984210   24.485800       1.0000      1.0079
  210   1 H    1       3.713150    7.407020   19.100300       1.0000      1.0079
  211   1 H    1       2.195960    6.832370   18.984400       1.0000      1.0079
  212   1 H    1      11.913900    8.270710   20.487800       1.0000      1.0079
  213   1 H    1      13.359500    8.739280   21.022500       1.0000      1.0079
  214   1 H    1      13.098200    6.424570   20.742800       1.0000      1.0079
  215   1 H    1      13.577600    4.792980   20.853800       1.0000      1.0079
  216   1 H    1      12.457100    5.706340   17.788400       1.0000      1.0079
  217   1 H    1      12.248000    4.863680   18.989300       1.0000      1.0079
  218   1 H    1      13.577000    2.566530   20.675400       1.0000      1.0079
  219   1 H    1      14.933700    2.822760   21.423700       1.0000      1.0079
  220   1 H    1      13.898100   10.138300   17.920500       1.0000      1.0079
  221   1 H    1      13.749800    8.563760   17.853700       1.0000      1.0079
  222   1 H    1       0.553012    2.133070   23.634200       1.0000      1.0079
  223   1 H    1      16.156700    3.037390   23.893200       1.0000      1.0079
  224   1 H    1      15.180400   13.302700   24.000800       1.0000      1.0079
  225   1 H    1      14.391200   12.793000   22.787000       1.0000      1.0079
  226   1 H    1       5.506200    6.939790   19.724400       1.0000      1.0079
  227   1 H    1       5.522230    8.375650   20.488300       1.0000      1.0079
  228   1 H    1       5.069880    0.818412   19.767900       1.0000      1.0079
  229   1 H    1       5.203490    2.351380   20.184100       1.0000      1.0079
  230   1 H    1      11.112800   11.668600   20.754000       1.0000      1.0079
  231   1 H    1      12.660700   11.922500   21.145600       1.0000      1.0079
  232   1 H    1       2.150430    4.839040   22.764400       1.0000      1.0079
  233   1 H    1       3.088510    3.534390   22.840200       1.0000      1.0079
  234   1 H    1      14.637100   10.949300   21.982500       1.0000      1.0079
  235   1 H    1      13.529700   11.022500   23.148300       1.0000      1.0079
  236   1 H    1       5.677730   11.614300   22.747200       1.0000      1.0079
  237   1 H    1       4.399800   11.664000   22.001200       1.0000      1.0079
  238   1 H    1       8.144190    2.767040   23.089500       1.0000      1.0079
  239   1 H    1       8.379840    1.616400   24.137100       1.0000      1.0079
  240   1 H    1       5.753820    0.725509   21.770400       1.0000      1.0079
  241   1 H    1       6.581230    1.070810   23.031800       1.0000      1.0079
  242   1 H    1       9.433110    5.339160   20.097700       1.0000      1.0079
  243   1 H    1       9.192110    6.002320   18.624500       1.0000      1.0079
  244   1 H    1       8.424100    6.286610   22.934600       1.0000      1.0079
  245   1 H    1       9.622390    7.372310   22.805600       1.0000      1.0079
  246   1 H    1      10.887900    8.084290   24.209800       1.0000      1.0079
  247   1 H    1      11.678400    7.920020   22.853800       1.0000      1.0079
  248   1 H    1       4.285500    5.554760   22.865600       1.0000      1.0079
  249   1 H    1       5.160570    6.295570   21.896400       1.0000      1.0079
  250   1 H    1      13.856300    3.517310   23.513900       1.0000      1.0079
  251   1 H    1      13.849800    2.059510   24.025100       1.0000      1.0079
  252   1 H    1      11.016000    3.440070   24.095200       1.0000      1.0079
  253   1 H    1      11.205600    4.869190   23.561000       1.0000      1.0079
  254   1 H    1      16.570600    0.308816   22.756200       1.0000      1.0079
  255   1 H    1       1.189570    0.207142   22.874000       1.0000      1.0079
  256   1 H    1       3.405900   13.231900   19.838700       1.0000      1.0079
  257   1 H    1       3.147040   13.410100   21.467800       1.0000      1.0079
  258   1 H    1       1.854680   10.434300   17.794900       1.0000      1.0079
  259   1 H    1       2.380030    8.936430   17.602500       1.0000      1.0079
  260   1 H    1       3.186120   14.498600   23.684600       1.0000      1.0079
  261   1 H    1       3.657760   13.033600   23.915900       1.0000      1.0079
  262   1 H    1      15.456600    6.014180   23.168700       1.0000      1.0079
  263   1 H    1      16.117500    8.009290   24.320600       1.0000      1.0079
  264   1 H    1      16.801400    9.863940   24.042400       1.0000      1.0079
  265   1 H    1      11.863900   10.369100   24.169800       1.0000      1.0079
  266   1 H    1       3.630670   10.069600   23.387600       1.0000      1.0079
  267   1 H    1       2.320930    9.790260   24.307300       1.0000      1.0079
  268   1 H    1       6.512050   13.672000   22.777800       1.0000      1.0079
  269   1 H    1       7.214740   12.761800   21.672300       1.0000      1.0079
  270   1 H    1      10.017800   10.061900   20.952200       1.0000      1.0079
  271   1 H    1      10.021300   10.377500   22.387100       1.0000      1.0079
  272   1 H    1      10.278200    0.106238   22.481000       1.0000      1.0079
  273   1 H    1       9.926980   13.760500   23.735100       1.0000      1.0079
  274   1 H    1       7.973620   12.814900   23.807000       1.0000      1.0079
  275   1 H    1       9.332040   11.778800   24.293500       1.0000      1.0079
  276   1 H    1       5.934700   10.790200   20.604400       1.0000      1.0079
  277   1 H    1       7.049290   10.145300   21.327100       1.0000      1.0079
  278   1 H    1       1.596340    8.897590   22.162700       1.0000      1.0079
  279   1 H    1       1.320930    9.362470   20.704000       1.0000      1.0079
  280   1 H    1      15.599100    9.234740   16.942300       1.0000      1.0079
  281   1 H    1       0.222822    9.189420   16.462100       1.0000      1.0079
  282   1 H    1      14.063500    7.327730   23.973000       1.0000      1.0079
  283   1 H    1      13.594300    9.033330   24.376800       1.0000      1.0079
  284   1 H    1       6.631510    5.480170   23.460300       1.0000      1.0079
  285   1 H    1       7.789560    4.860220   24.393600       1.0000      1.0079
  286   1 H    1       6.713190    9.147300   23.737300       1.0000      1.0079
  287   1 H    1       7.843600    8.470500   22.895500       1.0000      1.0079
  288   1 H    1       5.028640    7.383240   24.060300       1.0000      1.0079
  289   1 H    1       4.271500    8.831910   24.477700       1.0000      1.0079
  290   1 H    1       0.398544   11.396300   24.008800       1.0000      1.0079
  291   1 H    1      13.305900   14.450300   24.032500       1.0000      1.0079
  292   1 H    1       2.215100    1.054830   16.925200       1.0000      1.0079
  293   1 H    1       1.617120    1.382740   18.497800       1.0000      1.0079
  294   1 H    1      14.757900    5.408010   24.277900       1.0000      1.0079
  295   1 H    1       8.948380   10.126600   24.236100       1.0000      1.0079
  296   1 H    1      11.788200    0.320055   23.812800       1.0000      1.0079
  297   2 O    8       4.700560    6.909540    9.006700       6.0000     15.9994
  298   2 O    8       2.425360    2.057830    8.999490       6.0000     15.9994
  299   2 O    8       8.547430    5.145600    8.260170       6.0000     15.9994
  300   2 O    8       0.414563    5.561600    8.802180       6.0000     15.9994
  301   2 O    8       0.167504    8.605280    8.902730       6.0000     15.9994
  302   2 O    8      14.424600   14.390800    9.374510       6.0000     15.9994
  303   2 O    8      10.929600    5.760220    9.101870       6.0000     15.9994
  304   2 O    8       5.353620   14.510100    8.285500       6.0000     15.9994
  305   2 O    8       9.323350    2.856740    9.182870       6.0000     15.9994
  306   2 O    8       2.684500    4.703910    8.007610       6.0000     15.9994
  307   2 O    8       7.528580   10.885900    8.871640       6.0000     15.9994
  308   2 O    8      11.222500    8.377330    8.970640       6.0000     15.9994
  309   2 O    8       1.263470    5.351430   15.214000       6.0000     15.9994
  310   2 O    8      15.616500   10.855200    9.089060       6.0000     15.9994
  311   2 O    8      15.304900   13.116700   13.414200       6.0000     15.9994
  312   2 O    8       6.309370    1.845410   14.417600       6.0000     15.9994
  313   2 O    8      11.763300    1.693700    9.158770       6.0000     15.9994
  314   2 O    8       3.037960    9.182350    8.947520       6.0000     15.9994
  315   2 O    8       5.118270   10.702000   10.070100       6.0000     15.9994
  316   2 O    8       1.301420    0.107925   10.588900       6.0000     15.9994
  317   2 O    8      16.801300   12.477800   11.304100       6.0000     15.9994
  318   2 O    8       7.113190    7.084780    8.125020       6.0000     15.9994
  319   2 O    8       8.571700    8.557090    9.749330       6.0000     15.9994
  320   2 O    8      -0.037348    0.074544    8.113280       6.0000     15.9994
  321   2 O    8      13.810300    5.474430    8.893130       6.0000     15.9994
  322   2 O    8       1.415510   12.345900    8.120550       6.0000     15.9994
  323   2 O    8      15.998700    2.524700    7.995770       6.0000     15.9994
  324   2 O    8      11.930600    8.044940   12.474100       6.0000     15.9994
  325   2 O    8       7.510760    1.162010   10.205200       6.0000     15.9994
  326   2 O    8      10.671900    5.512500   11.860400       6.0000     15.9994
  327   2 O    8       8.658890   13.370800    9.339240       6.0000     15.9994
  328   2 O    8       4.234590    6.761960   11.772600       6.0000     15.9994
  329   2 O    8       4.454030    3.120410   13.015700       6.0000     15.9994
  330   2 O    8       1.467620    6.961380   12.305900       6.0000     15.9994
  331   2 O    8      12.960700   12.337700    9.003240       6.0000     15.9994
  332   2 O    8      12.850300    3.267330   15.861000       6.0000     15.9994
  333   2 O    8       3.894590   12.323700    8.242590       6.0000     15.9994
  334   2 O    8      14.656100    5.141260   12.802200       6.0000     15.9994
  335   2 O    8       0.114047    4.666230   11.316900       6.0000     15.9994
  336   2 O    8      15.186600    9.110980   12.210200       6.0000     15.9994
  337   2 O    8      14.789300   10.528800   14.411600       6.0000     15.9994
  338   2 O    8       5.199420    9.560250   12.541900       6.0000     15.9994
  339   2 O    8      14.166300    3.114600    9.742290       6.0000     15.9994
  340   2 O    8       1.056110    9.980360   11.957000       6.0000     15.9994
  341   2 O    8       4.236390   13.777500   11.310100       6.0000     15.9994
  342   2 O    8      12.339900    5.179310   14.004000       6.0000     15.9994
  343   2 O    8       7.057170   11.444700   16.062400       6.0000     15.9994
  344   2 O    8       3.824020    6.024900   16.308500       6.0000     15.9994
  345   2 O    8       8.657560    3.686280   11.791400       6.0000     15.9994
  346   2 O    8      15.367900    2.246330   15.810600       6.0000     15.9994
  347   2 O    8      13.471700   14.129300   17.764900       6.0000     15.9994
  348   2 O    8       4.864680   11.202800   14.544900       6.0000     15.9994
  349   2 O    8       4.733520    1.886060   10.621400       6.0000     15.9994
  350   2 O    8      14.366200    2.038980   12.658800       6.0000     15.9994
  351   2 O    8      11.365800   11.140900   11.639700       6.0000     15.9994
  352   2 O    8      12.843100   14.411800   12.817900       6.0000     15.9994
  353   2 O    8       9.153220   12.217200   14.583400       6.0000     15.9994
  354   2 O    8       6.459290    5.212750   12.561700       6.0000     15.9994
  355   2 O    8      15.676300    7.204730   14.143800       6.0000     15.9994
  356   2 O    8       1.775910   11.042300   14.475200       6.0000     15.9994
  357   2 O    8       9.903450    0.102393   20.559600       6.0000     15.9994
  358   2 O    8       7.902320    8.994550   12.308100       6.0000     15.9994
  359   2 O    8      10.825700   14.575000   11.169500       6.0000     15.9994
  360   2 O    8      12.171400    0.701238   15.768300       6.0000     15.9994
  361   2 O    8      13.305200    6.955440   16.835400       6.0000     15.9994
  362   2 O    8       8.629110    1.278460   12.543100       6.0000     15.9994
  363   2 O    8       4.521340   13.850000   14.133400       6.0000     15.9994
  364   2 O    8       0.274494    2.338760   12.463700       6.0000     15.9994
  365   2 O    8       9.257480    0.160349   15.922300       6.0000     15.9994
  366   2 O    8      15.779300    5.025550   18.900100       6.0000     15.9994
  367   2 O    8       7.686930    6.907560   14.299900       6.0000     15.9994
  368   2 O    8       5.878810    3.696540   16.609700       6.0000     15.9994
  369   2 O    8       7.325460    9.100550   17.762300       6.0000     15.9994
  370   2 O    8       0.967039    6.171360   20.253200       6.0000     15.9994
  371   2 O    8      16.096600   13.596500   18.344300       6.0000     15.9994
  372   2 O    8       2.380450    0.537682   15.366100       6.0000     15.9994
  373   2 O    8       4.447950    3.863050   20.281100       6.0000     15.9994
  374   2 O    8      15.208800    2.322730   18.642600       6.0000     15.9994
  375   2 O    8       6.332460    6.813380   16.422500       6.0000     15.9994
  376   2 O    8      13.869800    7.067390   10.962300       6.0000     15.9994
  377   2 O    8       6.589250   13.606900   17.662500       6.0000     15.9994
  378   2 O    8       2.048340   12.450500   16.741200       6.0000     15.9994
  379   2 O    8      12.826700   11.469100   18.041700       6.0000     15.9994
  380   2 O    8      11.050200   11.008200   16.040900       6.0000     15.9994
  381   2 O    8      10.290000    7.114220   14.944200       6.0000     15.9994
  382   2 O    8       8.578530   11.527600   12.023600       6.0000     15.9994
  383   2 O    8       3.215770    3.860290   17.910100       6.0000     15.9994
  384   2 O    8       8.376570    1.856790   19.633000       6.0000     15.9994
  385   2 O    8      15.082700    9.405190   20.804800       6.0000     15.9994
  386   2 O    8       0.511632    5.798950   23.484200       6.0000     15.9994
  387   2 O    8       9.890780    8.793670   16.978000       6.0000     15.9994
  388   2 O    8       0.977608   11.276700   19.331100       6.0000     15.9994
  389   2 O    8      16.563900   14.504100   15.160400       6.0000     15.9994
  390   2 O    8       8.419250    2.882080   17.109200       6.0000     15.9994
  391   2 O    8       2.144150    3.128060   14.290000       6.0000     15.9994
  392   2 O    8      15.432400    5.139890   16.152800       6.0000     15.9994
  393   2 O    8       4.290280   14.267100   18.609500       6.0000     15.9994
  394   2 O    8       0.494580    1.062230   19.524500       6.0000     15.9994
  395   2 O    8       7.833600   12.891700   20.198200       6.0000     15.9994
  396   2 O    8       6.119740    5.598540   19.229400       6.0000     15.9994
  397   2 O    8       9.569630    5.295660   16.932800       6.0000     15.9994
  398   2 O    8      12.541600    0.229643   20.472900       6.0000     15.9994
  399   2 O    8      12.578700    9.034050   15.036800       6.0000     15.9994
  400   2 O    8      10.450800    8.612170   19.713200       6.0000     15.9994
  401   2 O    8      10.014800    3.830840   20.826800       6.0000     15.9994
  402   2 O    8       3.346900    1.828630   23.493500       6.0000     15.9994
  403   2 O    8       2.941080    7.228800   18.454600       6.0000     15.9994
  404   2 O    8      12.591600    8.180390   21.242200       6.0000     15.9994
  405   2 O    8      13.425300    5.604090   20.304700       6.0000     15.9994
  406   2 O    8      12.017500    4.825720   17.968100       6.0000     15.9994
  407   2 O    8      13.933600    3.037730   21.422800       6.0000     15.9994
  408   2 O    8      14.412400    9.259840   18.102400       6.0000     15.9994
  409   2 O    8       0.226913    2.982330   24.114300       6.0000     15.9994
  410   2 O    8      14.759000   13.694400   23.204000       6.0000     15.9994
  411   2 O    8       4.970560    7.615790   20.238000       6.0000     15.9994
  412   2 O    8       5.652580    1.461360   20.300300       6.0000     15.9994
  413   2 O    8      11.928800   12.140500   20.427700       6.0000     15.9994
  414   2 O    8       3.008010    4.464480   22.538200       6.0000     15.9994
  415   2 O    8      13.818900   11.434000   22.261800       6.0000     15.9994
  416   2 O    8       4.750290   11.167000   22.740000       6.0000     15.9994
  417   2 O    8       8.083590    1.817640   23.253200       6.0000     15.9994
  418   2 O    8       5.785370    0.540802   22.738700       6.0000     15.9994
  419   2 O    8       8.976190    6.064910   19.599600       6.0000     15.9994
  420   2 O    8       8.701770    7.138880   22.496300       6.0000     15.9994
  421   2 O    8      11.161300    7.453130   23.566000       6.0000     15.9994
  422   2 O    8       5.053860    6.112170   22.831300       6.0000     15.9994
  423   2 O    8      14.312500    2.955850   24.166800       6.0000     15.9994
  424   2 O    8      11.290300    3.953840   23.272700       6.0000     15.9994
  425   2 O    8       0.501234    0.655439   22.337900       6.0000     15.9994
  426   2 O    8       3.182150   12.814200   20.702000       6.0000     15.9994
  427   2 O    8       1.884030    9.697010   17.177800       6.0000     15.9994
  428   2 O    8       2.944020   13.527300   23.486400       6.0000     15.9994
  429   2 O    8       0.196724    8.248750   24.469600       6.0000     15.9994
  430   2 O    8      12.807300   10.220900   24.429100       6.0000     15.9994
  431   2 O    8       2.921570    9.429550   23.629400       6.0000     15.9994
  432   2 O    8       6.843410   12.744600   22.624300       6.0000     15.9994
  433   2 O    8       9.812700   10.804800   21.525600       6.0000     15.9994
  434   2 O    8      10.587900   14.363300   23.322100       6.0000     15.9994
  435   2 O    8       8.906500   12.788400   24.263700       6.0000     15.9994
  436   2 O    8       6.768900   10.288900   20.385800       6.0000     15.9994
  437   2 O    8       1.004620    8.655210   21.376900       6.0000     15.9994
  438   2 O    8      16.185500    9.132120   16.111400       6.0000     15.9994
  439   2 O    8      14.269100    8.265440   24.411700       6.0000     15.9994
  440   2 O    8       7.523320    5.039940   23.498400       6.0000     15.9994
  441   2 O    8       7.464040    9.332850   23.126100       6.0000     15.9994
  442   2 O    8       5.197790    8.334030   24.418600       6.0000     15.9994
  443   2 O    8      16.575200   10.719300   23.626500       6.0000     15.9994
  444   2 O    8       2.384550    1.480580   17.845700       6.0000     15.9994
  445   2 O    8      14.516100    5.892070   23.431700       6.0000     15.9994
  446   2 O    8       9.782750   10.530000   24.569600       6.0000     15.9994
  447   2 O    8      12.706800    0.598387   24.316800       6.0000     15.9994
  448   3 Pt  78       1.480450    0.745239   26.748500      10.0000    195.0840
  449   3 Pt  78       4.252000    0.804576   26.548600      10.0000    195.0840
  450   3 Pt  78       6.969820    0.753339   26.574200      10.0000    195.0840
  451   3 Pt  78       9.850510    0.650869   26.762200      10.0000    195.0840
  452   3 Pt  78      12.669300    0.727875   26.531300      10.0000    195.0840
  453   3 Pt  78      15.433100    0.787658   26.603000      10.0000    195.0840
  454   3 Pt  78       2.879820    3.161970   26.653600      10.0000    195.0840
  455   3 Pt  78       5.676490    3.266010   26.627800      10.0000    195.0840
  456   3 Pt  78       8.461680    3.244650   26.542500      10.0000    195.0840
  457   3 Pt  78      11.327700    3.064190   26.707900      10.0000    195.0840
  458   3 Pt  78      14.204800    3.120950   26.604300      10.0000    195.0840
  459   3 Pt  78       0.127968    3.128350   26.446600      10.0000    195.0840
  460   3 Pt  78       4.212010    5.588570   26.704100      10.0000    195.0840
  461   3 Pt  78       7.000220    5.670640   26.581600      10.0000    195.0840
  462   3 Pt  78       9.904440    5.604340   26.695700      10.0000    195.0840
  463   3 Pt  78      12.641600    5.421800   26.521800      10.0000    195.0840
  464   3 Pt  78      15.568500    5.610540   26.563100      10.0000    195.0840
  465   3 Pt  78       1.347990    5.720090   26.496700      10.0000    195.0840
  466   3 Pt  78       5.860010    8.038130   26.523800      10.0000    195.0840
  467   3 Pt  78       8.593560    7.854490   26.639500      10.0000    195.0840
  468   3 Pt  78      11.379100    7.939400   26.617600      10.0000    195.0840
  469   3 Pt  78      14.188900    8.059960   26.573000      10.0000    195.0840
  470   3 Pt  78       0.162636    8.108030   26.539500      10.0000    195.0840
  471   3 Pt  78       2.868440    7.996150   26.637300      10.0000    195.0840
  472   3 Pt  78       7.071760   10.644000   26.616200      10.0000    195.0840
  473   3 Pt  78       9.949350   10.391000   26.674100      10.0000    195.0840
  474   3 Pt  78      12.796100   10.462100   26.471900      10.0000    195.0840
  475   3 Pt  78      15.589000   10.508900   26.512500      10.0000    195.0840
  476   3 Pt  78       1.494410   10.508400   26.551700      10.0000    195.0840
  477   3 Pt  78       4.348120   10.494900   26.839600      10.0000    195.0840
  478   3 Pt  78       8.477320   12.933600   26.583400      10.0000    195.0840
  479   3 Pt  78      11.342100   12.817800   26.692400      10.0000    195.0840
  480   3 Pt  78      14.120300   12.921100   26.639200      10.0000    195.0840
  481   3 Pt  78      16.886600   12.889400   26.513500      10.0000    195.0840
  482   3 Pt  78       2.740400   12.945300   26.661500      10.0000    195.0840
  483   3 Pt  78       5.635740   12.952500   26.497300      10.0000    195.0840
  484   3 Pt  78      16.840100    1.604050   29.036200      10.0000    195.0840
  485   3 Pt  78       2.924170    1.612590   29.002800      10.0000    195.0840
  486   3 Pt  78       5.614320    1.635910   28.849900      10.0000    195.0840
  487   3 Pt  78       8.459350    1.532910   28.858000      10.0000    195.0840
  488   3 Pt  78      11.219300    1.606180   28.979600      10.0000    195.0840
  489   3 Pt  78      13.948500    1.613590   28.901400      10.0000    195.0840
  490   3 Pt  78       1.375650    4.006860   28.884600      10.0000    195.0840
  491   3 Pt  78       4.203970    4.110880   28.934200      10.0000    195.0840
  492   3 Pt  78       6.966720    4.089620   29.059500      10.0000    195.0840
  493   3 Pt  78       9.780390    3.991160   28.950000      10.0000    195.0840
  494   3 Pt  78      12.678900    4.026490   29.024700      10.0000    195.0840
  495   3 Pt  78      15.428400    3.894830   28.931500      10.0000    195.0840
  496   3 Pt  78       2.793580    6.407670   28.967400      10.0000    195.0840
  497   3 Pt  78       5.695380    6.568720   29.008500      10.0000    195.0840
  498   3 Pt  78       8.491680    6.435280   29.064100      10.0000    195.0840
  499   3 Pt  78      11.335600    6.359560   28.941900      10.0000    195.0840
  500   3 Pt  78      14.127600    6.415040   28.885700      10.0000    195.0840
  501   3 Pt  78      16.803100    6.385060   28.968600      10.0000    195.0840
  502   3 Pt  78       4.236300    8.782760   28.976000      10.0000    195.0840
  503   3 Pt  78       6.992950    8.909060   28.943600      10.0000    195.0840
  504   3 Pt  78       9.930370    8.784880   28.995100      10.0000    195.0840
  505   3 Pt  78      12.812000    8.876820   28.971000      10.0000    195.0840
[...]
    640      3      Pt         -0.01945380    -0.00171302    -0.03287230
    641      3      Pt          0.02151294     0.01297675     0.00719370
    642      3      Pt          0.00156243    -0.00002210    -0.01652314
    643      3      Pt         -0.01028760    -0.00290350     0.01155379
    644      3      Pt          0.00910641    -0.01320425    -0.00659620
    645      3      Pt         -0.00566765     0.00156873     0.02136250
    646      3      Pt          0.00294037     0.00763589    -0.01232539
    647      3      Pt         -0.01415127     0.00667811     0.01534279
    648      3      Pt          0.00536971    -0.01159670     0.00474215
    649      3      Pt          0.01221873     0.01516713     0.00222466
    650      3      Pt         -0.01173066    -0.00625103    -0.00155294
    651      3      Pt          0.01594660     0.00979599    -0.01857535
    652      3      Pt          0.00347748    -0.00332179     0.00759202
    653      3      Pt         -0.00613258    -0.01034269    -0.00211703
    654      3      Pt         -0.01028080     0.00912156    -0.00496890
    655      3      Pt          0.01368259    -0.01240685    -0.00440127
    656      3      Pt          0.00679655    -0.00635943    -0.01080709
    657      3      Pt         -0.01580391    -0.00426215    -0.00965048
    658      3      Pt         -0.01173074     0.00199977    -0.00465763
    659      3      Pt          0.00455196     0.01532554    -0.00213641
    660      3      Pt          0.02158327    -0.00370733     0.00019365
    661      3      Pt         -0.00151479     0.00189870    -0.00821442
    662      3      Pt         -0.00943092     0.00332633    -0.00620833
    663      3      Pt         -0.00431182    -0.00121588    -0.00368542
 SUM OF ATOMIC FORCES           0.00005204    -0.00091343     0.00085923     0.00125513

 -------------------------------------------------------------------------------
 -                                                                             -
 -                                DBCSR STATISTICS                             -
 -                                                                             -
 -------------------------------------------------------------------------------
 COUNTER                                    TOTAL       BLAS       SMM       ACC
 flops     5 x     3 x     5             69471000       0.0%    100.0%      0.0%
 flops    13 x     3 x     5             81724500       0.0%    100.0%      0.0%
 flops     5 x     3 x    13             81724500       0.0%    100.0%      0.0%
 flops    13 x     3 x    13             87433164       0.0%    100.0%      0.0%
 flops    13 x     3 x    20            133819920       0.0%    100.0%      0.0%
 flops    20 x     3 x    13            133819920       0.0%    100.0%      0.0%
 flops    20 x     3 x     5            143892000       0.0%    100.0%      0.0%
 flops     5 x     3 x    20            143892000       0.0%    100.0%      0.0%
 flops    20 x     3 x    20            670809600       0.0%    100.0%      0.0%
 flops     5 x    32 x     5          36310176000       0.0%    100.0%      0.0%
 flops     5 x     5 x   261          42470076600       0.0%    100.0%      0.0%
 flops     5 x    32 x    13          42714672000       0.0%    100.0%      0.0%
 flops    13 x    32 x     5          42714672000       0.0%    100.0%      0.0%
 flops    13 x    32 x    13          45698400384       0.0%    100.0%      0.0%
 flops    13 x     5 x   261          49757394960       0.0%    100.0%      0.0%
 flops     5 x    13 x   261          49783046040       0.0%    100.0%      0.0%
 flops    13 x    13 x   261          53806275432       0.0%    100.0%      0.0%
 flops    13 x    32 x    20          69943211520       0.0%    100.0%      0.0%
 flops    20 x    32 x    13          69943211520       0.0%    100.0%      0.0%
 flops    20 x    32 x     5          75207552000       0.0%    100.0%      0.0%
 flops     5 x    32 x    20          75207552000       0.0%    100.0%      0.0%
 flops    20 x    13 x   261          81456429600       0.0%    100.0%      0.0%
 flops    13 x    20 x   261          81536232960       0.0%    100.0%      0.0%
 flops    20 x     5 x   261          87555686400       0.0%    100.0%      0.0%
 flops     5 x    20 x   261          87704769600       0.0%    100.0%      0.0%
 flops     5 x     5 x   256         124969420800       0.0%    100.0%      0.0%
 flops    13 x     5 x   256         146412564480       0.0%    100.0%      0.0%
 flops     5 x    13 x   256         146488043520       0.0%    100.0%      0.0%
 flops    13 x    13 x   256         158326511616       0.0%    100.0%      0.0%
 flops     5 x     5 x   288         187454131200       0.0%    100.0%      0.0%
 flops    13 x     5 x   288         219618846720       0.0%    100.0%      0.0%
 flops     5 x    13 x   288         219732065280       0.0%    100.0%      0.0%
 flops    13 x    13 x   288         237489767424       0.0%    100.0%      0.0%
 flops    20 x    13 x   256         239687884800       0.0%    100.0%      0.0%
 flops    13 x    20 x   256         239922708480       0.0%    100.0%      0.0%
 flops    20 x     5 x   256         257635123200       0.0%    100.0%      0.0%
 flops     5 x    20 x   256         258073804800       0.0%    100.0%      0.0%
 flops    20 x    32 x    20         350609817600       0.0%    100.0%      0.0%
 flops    20 x    13 x   288         359531827200       0.0%    100.0%      0.0%
 flops    13 x    20 x   288         359884062720       0.0%    100.0%      0.0%
 flops    20 x     5 x   288         386452684800       0.0%    100.0%      0.0%
 flops     5 x    20 x   288         387110707200       0.0%    100.0%      0.0%
 flops    20 x    20 x   261         410417280000       0.0%    100.0%      0.0%
 flops    20 x    20 x   256        1207664640000       0.0%    100.0%      0.0%
 flops    20 x    20 x   288        1811496960000       0.0%    100.0%      0.0%
 flops inhomo. stacks                           0       0.0%      0.0%      0.0%
 flops total                         8.702335E+12       0.0%    100.0%      0.0%
 flops max/rank                    140.385501E+09       0.0%    100.0%      0.0%
 matmuls inhomo. stacks                         0       0.0%      0.0%      0.0%
 matmuls total                          201535212       0.0%    100.0%      0.0%
 number of processed stacks                500472       0.0%    100.0%      0.0%
 average stack size                                     0.0     402.7       0.0
 marketing flops                    18.824496E+12
 -------------------------------------------------------------------------------
 # multiplications                             90
 max memory usage/rank               2.243334E+09
 # max total images/rank                        1
 # max 3D layers                                1
 # MPI messages exchanged                   80640
 MPI messages size (bytes):
  total size                       177.820467E+09
  min size                           1.485312E+06
  max size                           5.469536E+06
  average size                       2.205115E+06
 MPI breakdown and total messages size (bytes):
             size <=      128                   0                        0
       128 < size <=     8192                   0                        0
      8192 < size <=    32768                   0                        0
     32768 < size <=   131072                   0                        0
    131072 < size <=  4194304               77952             163385563152
   4194304 < size <= 16777216                2688              14434808304
  16777216 < size                               0                        0
 -------------------------------------------------------------------------------
 -                                                                             -
 -                      DBCSR MESSAGE PASSING PERFORMANCE                      -
 -                                                                             -
 -------------------------------------------------------------------------------
 ROUTINE             CALLS      AVE VOLUME [Bytes]
 MP_Bcast               46                     12.
 MP_Allreduce          716                     11.
 MP_Alltoall          2478                1490420.
 MP_ISend             2880                 975397.
 MP_IRecv             2880                 961012.
 -------------------------------------------------------------------------------

 -------------------------------------------------------------------------------
 -                                                                             -
 -                                GRID STATISTICS                              -
 -                                                                             -
 -------------------------------------------------------------------------------
 LP    KERNEL             BACKEND                              COUNT     PERCENT
 3     collocate ortho    REF                               36488760      18.34%
 3     integrate ortho    REF                               36390332      18.29%
 4     integrate ortho    REF                               34707995      17.44%
 4     collocate ortho    REF                               34686540      17.43%
 2     collocate ortho    REF                               28220808      14.18%
 2     integrate ortho    REF                               27884846      14.02%
 5     integrate ortho    REF                                 412935       0.21%
 0     collocate general  REF                                  84864       0.04%
 0     integrate general  REF                                  42432       0.02%
 1     integrate general  REF                                  42432       0.02%
 -------------------------------------------------------------------------------

 MEMORY| Estimated peak process memory [MiB]                                2137

 -------------------------------------------------------------------------------
 ----                             MULTIGRID INFO                            ----
 -------------------------------------------------------------------------------
 count for grid        1:         434922          cutoff [a.u.]          400.00
 count for grid        2:         710036          cutoff [a.u.]          133.33
 count for grid        3:         663984          cutoff [a.u.]           44.44
 count for grid        4:         632650          cutoff [a.u.]           14.81
 count for grid        5:         332426          cutoff [a.u.]            4.94
 total gridlevel count  :        2774018

 -------------------------------------------------------------------------------
 -                                                                             -
 -                         MESSAGE PASSING PERFORMANCE                         -
 -                                                                             -
 -------------------------------------------------------------------------------

 ROUTINE             CALLS      AVE VOLUME [Bytes]
 MP_Group                5
 MP_Bcast             2637                 259000.
 MP_Allreduce         5725                  21625.
 MP_Sync                89
 MP_Alltoall          2202               22368167.
 MP_SendRecv        254016                1088507.
 MP_ISendRecv        31752                 108715.
 MP_Wait             40592
 MP_ISend             7480                1231696.
 MP_IRecv             7480                1231696.
 MP_Recv               402                1987328.
 -------------------------------------------------------------------------------


 -------------------------------------------------------------------------------
 -                                                                             -
 -                           R E F E R E N C E S                               -
 -                                                                             -
 -------------------------------------------------------------------------------
 
 CP2K version 9.1, the CP2K developers group (2021).
 CP2K is freely available from https://www.cp2k.org/ .

 Kuehne,Thomas D.; Iannuzzi,Marcella; Del Ben,Mauro;
 Rybkin,Vladimir V.; Seewald,Patrick; Stein,Frederick; Laino,Teodoro;
 Khaliullin,Rustam Z.; Schuett,Ole; Schiffmann,Florian; Golze,Dorothea;
 Wilhelm,Jan; Chulkov,Sergey; Bani-Hashemian,Mohammad Hossein;
 Weber,Valery; Borstnik,Urban; Taillefumier,Mathieu;
 Jakobovits,Alice Shoshana; Lazzaro,Alfio; Pabst,Hans; Mueller,Tiziano;
 Schade,Robert; Guidon,Manuel; Andermatt,Samuel; Holmberg,Nico;
 Schenter,Gregory K.; Hehn,Anna; Bussy,Augustin; Belleflamme,Fabian;
 Tabacchi,Gloria; Gloess,Andreas; Lass,Michael; Bethune,Iain;
 Mundy,Christopher J.; Plessl,Christian; Watkins,Matt;
 VandeVondele,Joost; Krack,Matthias; Hutter,Juerg. 
 The Journal of Chemical Physics, 152 (19), (2020). 
 CP2K: An electronic structure and molecular dynamics software package -
 Quickstep: Efficient and accurate electronic structure calculations.
 https://doi.org/10.1063/5.0007045

 Goerigk, Lars; Hansen, Andreas; Bauer, Christoph; Ehrlich, Stephan;
 Najibi, Asim; Grimme, Stefan. , 19 (48), (2017). 
 A look at the density functional theory zoo with the advanced GMTKN55 database
 for general main group thermochemistry, kinetics and noncovalent interactions.
 https://doi.org/10.1039/C7CP04913G

 Schuett, Ole; Messmer, Peter; Hutter, Juerg; VandeVondele, Joost. 
 Electronic Structure Calculations on Graphics Processing Units, John
 Wiley & Sons, Ltd, 173-190 (2016). 
 GPU-Accelerated Sparse Matrix-Matrix Multiplication for
 Linear Scaling Density Functional Theory.
 https://doi.org/10.1002/9781118670712.ch8

 Heinecke, A; Henry, G; Hutchinson, M; Pabst, H. 
 Proceedings of Intl. Supercomputing Conference, 981-991 (2016). 
 LIBXSMM: Accelerating Small Matrix Multiplications
 by Runtime Code Generation.
 https://doi.org/10.1109/SC.2016.83

 Borstnik, U; VandeVondele, J; Weber, V; Hutter, J. 
 PARALLEL COMPUTING, 40 (5-6), 47-58 (2014). 
 Sparse matrix multiplication: The distributed block-compressed sparse
 row library.
 https://doi.org/10.1016/j.parco.2014.03.012

 Hutter, J; Iannuzzi, M; Schiffmann, F; VandeVondele, J. 
 WIREs Comput Mol Sci., 4 (1), 15-25 (2014). 
 CP2K: atomistic simulations of condensed matter systems.
 https://doi.org/10.1002/wcms.1159

 Grimme, S; Ehrlich, S; Goerigk, L. 
 JOURNAL OF COMPUTATIONAL CHEMISTRY, 32, 1456 (2011). 
 Effect of the damping function in dispersion corrected density functional theory.
 https://doi.org/10.1002/jcc.21759

 Grimme, S; Antony, J; Ehrlich, S; Krieg, H. 
 JOURNAL OF CHEMICAL PHYSICS, 132 (15), 154104 (2010). 
 A consistent and accurate ab initio parametrization of density
 functional dispersion correction (DFT-D) for the 94 elements H-Pu.
 https://doi.org/10.1063/1.3382344

 VandeVondele, J; Hutter, J. 
 JOURNAL OF CHEMICAL PHYSICS, 127 (11), 114105 (2007). 
 Gaussian basis sets for accurate calculations on molecular systems in
 gas and condensed phases.
 https://doi.org/10.1063/1.2770708

 Krack, M. 
 THEORETICAL CHEMISTRY ACCOUNTS, 114 (1-3), 145-152 (2005). 
 Pseudopotentials for H to Kr optimized for gradient-corrected
 exchange-correlation functionals.
 https://doi.org/10.1007/s00214-005-0655-y

 VandeVondele, J; Krack, M; Mohamed, F; Parrinello, M; Chassaing, T;
 Hutter, J. COMPUTER PHYSICS COMMUNICATIONS, 167 (2), 103-128 (2005). 
 QUICKSTEP: Fast and accurate density functional calculations using a
 mixed Gaussian and plane waves approach.
 https://doi.org/10.1016/j.cpc.2004.12.014

 Frigo, M; Johnson, SG. 
 PROCEEDINGS OF THE IEEE, 93 (2), 216-231 (2005). 
 The design and implementation of FFTW3.
 https://doi.org/10.1109/JPROC.2004.840301

 Hartwigsen, C; Goedecker, S; Hutter, J. 
 PHYSICAL REVIEW B, 58 (7), 3641-3662 (1998). 
 Relativistic separable dual-space Gaussian pseudopotentials from H to Rn.
 https://doi.org/10.1103/PhysRevB.58.3641

 Lippert, G; Hutter, J; Parrinello, M. 
 MOLECULAR PHYSICS, 92 (3), 477-487 (1997). 
 A hybrid Gaussian and plane wave density functional scheme.
 https://doi.org/10.1080/002689797170220

 Perdew, JP; Burke, K; Ernzerhof, M. 
 PHYSICAL REVIEW LETTERS, 77 (18), 3865-3868 (1996). 
 Generalized gradient approximation made simple.
 https://doi.org/10.1103/PhysRevLett.77.3865

 Goedecker, S; Teter, M; Hutter, J. 
 PHYSICAL REVIEW B, 54 (3), 1703-1710 (1996). 
 Separable dual-space Gaussian pseudopotentials.
 https://doi.org/10.1103/PhysRevB.54.1703


 -------------------------------------------------------------------------------
 -                                                                             -
 -                                T I M I N G                                  -
 -                                                                             -
 -------------------------------------------------------------------------------
 SUBROUTINE                       CALLS  ASD         SELF TIME        TOTAL TIME
                                MAXIMUM       AVERAGE  MAXIMUM  AVERAGE  MAXIMUM
 CP2K                                 1  1.0    0.065    0.189 3908.353 3908.361
 qs_forces                            1  2.0    0.056    0.073 3907.567 3907.576
 qs_energies                          1  3.0    0.029    0.029 3901.329 3901.337
 scf_post_calculation_gpw             1  4.0    0.114    0.128 3187.400 3187.410
 get_localization_info                1  5.0    0.024    0.024 3185.823 3185.833
 qs_loc_driver                        1  6.0    0.000    0.000 3185.799 3185.809
 optimize_loc_berry                   1  7.0    0.098    0.104 3185.782 3185.789
 jacobi_rot_para                      1  8.0 2629.266 2841.462 3184.419 3184.426
 scf_env_do_scf                       1  4.0    0.000    0.000  710.045  710.163
 scf_env_do_scf_inner_loop           83  5.0    0.004    0.008  710.045  710.163
 mp_allgather_d23                126882  9.0  321.709  450.974  321.709  450.974
 qs_scf_new_mos                      83  6.0    0.002    0.002  433.260  433.585
 eigensolver                         83  7.0    0.007    0.009  417.439  418.119
 cp_fm_syevd                         83  8.0    0.003    0.004  325.618  325.689
 cp_fm_syevd_base                    83  9.0  325.595  325.659  325.595  325.659
 mp_sendrecv_zm3                 126882  9.0  166.830  246.241  166.830  246.241
 rebuild_ks_matrix                   84  7.0    0.001    0.002  170.144  170.160
 qs_ks_build_kohn_sham_matrix        84  8.0    0.033    0.039  170.142  170.158
 qs_ks_update_qs_env                 83  6.0    0.001    0.001  167.826  167.842
 mp_sendrecv_dm2                 126882  9.0   53.234  102.870   53.234  102.870
 pw_transfer                       1847 10.4    0.106    0.137   95.537   97.918
 fft_wrap_pw1pw2                   1679 11.5    0.017    0.022   94.524   96.878
 fft_wrap_pw1pw2_400               1007 12.5    7.500    8.181   90.912   93.102
 cp_fm_triangular_multiply          249  8.0   90.311   91.525   90.311   91.525
 qs_vxc_create                       84  9.0    0.002    0.003   86.292   86.899
 xc_vxc_pw_create                    84 10.0    1.661    1.966   86.290   86.896
 -------------------------------------------------------------------------------

 The number of warnings for this run is : 1
 
 -------------------------------------------------------------------------------
  **** **** ******  **  PROGRAM ENDED AT                 2024-12-05 13:52:33.311
 ***** ** ***  *** **   PROGRAM RAN ON                                     cu018
 **    ****   ******    PROGRAM RAN BY                                     jxzhu
 ***** **    ** ** **   PROGRAM PROCESS ID                               2791904
  **** **  *******  **  PROGRAM STOPPED IN /public/home/jxzhu/workspace/2024-Pt1
                                           11-OH-spike/02.mlp_cll/calc/iters-001
                                           /label-cp2k/tasks/000000
