362
Lattice="10.126 0.0 0.0 0.0 10.126 0.0 0.0 0.0 38.95" Properties=species:S:1:pos:R:3:initial_charges:R:1:forces:R:3 timestep=40000 energy=0.0 pbc="T T T"
 Cu        1.265721        1.265721       34.474998    0 0 0 0 
 Cu        3.797163        1.265721       34.474998    0 0 0 0
 Cu        6.328606        1.265721       34.474998    0 0 0 0
 Cu        8.860048        1.265721       34.474998    0 0 0 0
 Cu        1.265721        3.797163       34.474998    0 0 0 0
 Cu        3.797163        3.797163       34.474998    0 0 0 0
 Cu        6.328606        3.797163       34.474998    0 0 0 0
 Cu        8.860048        3.797163       34.474998    0 0 0 0
 Cu        1.265721        6.328606       34.474998    0 0 0 0
 Cu        3.797163        6.328606       34.474998    0 0 0 0
 Cu        6.328606        6.328606       34.474998    0 0 0 0
 Cu        8.860048        6.328606       34.474998    0 0 0 0
 Cu        1.265721        8.860048       34.474998    0 0 0 0
 Cu        3.797163        8.860048       34.474998    0 0 0 0
 Cu        6.328606        8.860048       34.474998    0 0 0 0
 Cu        8.860048        8.860048       34.474998    0 0 0 0
 Cu        0.000000        0.000000       36.264999    0 0 0 0
 Cu        2.531442        0.000000       36.264999    0 0 0 0
 Cu        5.062885        0.000000       36.264999    0 0 0 0
 Cu        7.594327        0.000000       36.264999    0 0 0 0
 Cu        0.000000        2.531442       36.264999    0 0 0 0
 Cu        2.531442        2.531442       36.264999    0 0 0 0
 Cu        5.062885        2.531442       36.264999    0 0 0 0
 Cu        7.594327        2.531442       36.264999    0 0 0 0
 Cu        0.000000        5.062885       36.264999    0 0 0 0
 Cu        2.531442        5.062885       36.264999    0 0 0 0
 Cu        5.062885        5.062885       36.264999    0 0 0 0
 Cu        7.594327        5.062885       36.264999    0 0 0 0
 Cu        0.000000        7.594327       36.264999    0 0 0 0
 Cu        2.531442        7.594327       36.264999    0 0 0 0
 Cu        5.062885        7.594327       36.264999    0 0 0 0
 Cu        7.594327        7.594327       36.264999    0 0 0 0
 Cu        1.265721        1.265721       38.055000    0 0 0 0
 Cu        3.797163        1.265721       38.055000    0 0 0 0
 Cu        6.328606        1.265721       38.055000    0 0 0 0
 Cu        8.860048        1.265721       38.055000    0 0 0 0
 Cu        1.265721        3.797163       38.055000    0 0 0 0
 Cu        3.797163        3.797163       38.055000    0 0 0 0
 Cu        6.328606        3.797163       38.055000    0 0 0 0
 Cu        8.860048        3.797163       38.055000    0 0 0 0
 Cu        1.265721        6.328606       38.055000    0 0 0 0
 Cu        3.797163        6.328606       38.055000    0 0 0 0
 Cu        6.328606        6.328606       38.055000    0 0 0 0
 Cu        8.860048        6.328606       38.055000    0 0 0 0
 Cu        1.265721        8.860048       38.055000    0 0 0 0
 Cu        3.797163        8.860048       38.055000    0 0 0 0
 Cu        6.328606        8.860048       38.055000    0 0 0 0
 Cu        8.860048        8.860048       38.055000    0 0 0 0
 Cu        0.000000        0.000000        0.895000    0 0 0 0
 Cu        2.531442        0.000000        0.895000    0 0 0 0
 Cu        5.062885        0.000000        0.895000    0 0 0 0
 Cu        7.594327        0.000000        0.895000    0 0 0 0
 Cu        0.000000        2.531442        0.895000    0 0 0 0
 Cu        2.531442        2.531442        0.895000    0 0 0 0
 Cu        5.062885        2.531442        0.895000    0 0 0 0
 Cu        7.594327        2.531442        0.895000    0 0 0 0
 Cu        0.000000        5.062885        0.895000    0 0 0 0
 Cu        2.531442        5.062885        0.895000    0 0 0 0
 Cu        5.062885        5.062885        0.895000    0 0 0 0
 Cu        7.594327        5.062885        0.895000    0 0 0 0
 Cu        0.000000        7.594327        0.895000    0 0 0 0
 Cu        2.531442        7.594327        0.895000    0 0 0 0
 Cu        5.062885        7.594327        0.895000    0 0 0 0
 Cu        7.594327        7.594327        0.895000    0 0 0 0
 Cu        1.265721        1.265721        2.685000    0 0 0 0
 Cu        3.797163        1.265721        2.685000    0 0 0 0
 Cu        6.328606        1.265721        2.685000    0 0 0 0
 Cu        8.860048        1.265721        2.685000    0 0 0 0
 Cu        1.265721        3.797163        2.685000    0 0 0 0
 Cu        3.797163        3.797163        2.685000    0 0 0 0
 Cu        6.328606        3.797163        2.685000    0 0 0 0
 Cu        8.860048        3.797163        2.685000    0 0 0 0
 Cu        1.265721        6.328606        2.685000    0 0 0 0
 Cu        3.797163        6.328606        2.685000    0 0 0 0
 Cu        6.328606        6.328606        2.685000    0 0 0 0
 Cu        8.860048        6.328606        2.685000    0 0 0 0
 Cu        1.265721        8.860048        2.685000    0 0 0 0
 Cu        3.797163        8.860048        2.685000    0 0 0 0
 Cu        6.328606        8.860048        2.685000    0 0 0 0
 Cu        8.860048        8.860048        2.685000    0 0 0 0
 Cu        0.000000        0.000000        4.475000    0 0 0 0
 Cu        2.531442        0.000000        4.475000    0 0 0 0
 Cu        5.062885        0.000000        4.475000    0 0 0 0
 Cu        7.594327        0.000000        4.475000    0 0 0 0
 Cu        0.000000        2.531442        4.475000    0 0 0 0
 Cu        2.531442        2.531442        4.475000    0 0 0 0
 Cu        5.062885        2.531442        4.475000    0 0 0 0
 Cu        7.594327        2.531442        4.475000    0 0 0 0
 Cu        0.000000        5.062885        4.475000    0 0 0 0
 Cu        2.531442        5.062885        4.475000    0 0 0 0
 Cu        5.062885        5.062885        4.475000    0 0 0 0
 Cu        7.594327        5.062885        4.475000    0 0 0 0
 Cu        0.000000        7.594327        4.475000    0 0 0 0
 Cu        2.531442        7.594327        4.475000    0 0 0 0
 Cu        5.062885        7.594327        4.475000    0 0 0 0
 Cu        7.594327        7.594327        4.475000    0 0 0 0
 Cl        4.012088        8.834928        6.531222    0 0 0 0
 Cl        8.704590        8.875902        6.330546    0 0 0 0
 Cl        8.875124        3.995235        6.599360    0 0 0 0
 Cl        3.694522        3.827927        6.381714    0 0 0 0
 Cl        1.097158        1.341901        6.566900    0 0 0 0
 Cl        0.913203        6.727098        6.677138    0 0 0 0
 Cl        6.129903        6.155854        6.265300    0 0 0 0
 Cl        6.282415        1.285918        6.438411    0 0 0 0
 Cl        5.269806        3.280567       32.394211    0 0 0 0
 Cl        8.168860        4.931529       32.485035    0 0 0 0
 Cl        3.187780       10.340260       32.237507    0 0 0 0
 Cl       10.471059        8.338956       32.513317    0 0 0 0
 Cl        5.092692        7.263471       32.249374    0 0 0 0
 Cl        2.241887        5.389562       32.686306    0 0 0 0
 Cl        0.135149        1.997702       32.267036    0 0 0 0
 Cl        7.291097        0.131816       32.672531    0 0 0 0
 O         8.371108        8.744210       16.624613    0 0 0 0
 H         7.923426        9.618690       16.453854    0 0 0 0
 H         9.282733        8.968564       16.770382    0 0 0 0
 O        11.862736       10.184830       22.098635    0 0 0 0
 H        11.690949        9.324240       21.790201    0 0 0 0
 H        11.258034       10.456392       22.827765    0 0 0 0
 O         8.589609       21.402250       20.133196    0 0 0 0
 H         8.829305       20.974607       20.954517    0 0 0 0
 H         8.262131       22.340794       20.358448    0 0 0 0
 O         9.235455        6.080372        8.860650    0 0 0 0
 H         9.409842        6.505485        8.026879    0 0 0 0
 H        10.099680        6.228870        9.328730    0 0 0 0
 O         5.571060        0.461126       19.760963    0 0 0 0
 H         6.520958        0.648873       19.533033    0 0 0 0
 H         5.253658        1.383422       19.653681    0 0 0 0
 O        15.524348        8.532767       13.664894    0 0 0 0
 H        15.257804        9.223435       14.321434    0 0 0 0
 H        16.364563        8.134233       14.089704    0 0 0 0
 O         2.908229        3.408100        9.798533    0 0 0 0
 H         3.079031        4.338777        9.436192    0 0 0 0
 H         2.777038        3.547935       10.768572    0 0 0 0
 O         4.260481       19.225863       10.501632    0 0 0 0
 H         4.992166       19.334164       11.135423    0 0 0 0
 H         4.644750       18.919111        9.662482    0 0 0 0
 O         8.872916        6.487384       23.008490    0 0 0 0
 H         8.246326        5.818306       22.633093    0 0 0 0
 H         8.676429        7.315713       22.565128    0 0 0 0
 O         8.956584        4.811149       26.258121    0 0 0 0
 H         9.504511        5.380413       25.675081    0 0 0 0
 H         8.806588        5.571965       26.951139    0 0 0 0
 O        19.574564        2.379845       27.941713    0 0 0 0
 H        19.151779        3.265407       27.903904    0 0 0 0
 H        19.704456        2.127025       28.834427    0 0 0 0
 O        10.917339        0.880732       18.749090    0 0 0 0
 H        11.284876       -0.091446       18.568373    0 0 0 0
 H        10.032923        0.723105       19.112362    0 0 0 0
 O        14.233922        6.827149       25.406452    0 0 0 0
 H        14.485082        7.774361       25.529030    0 0 0 0
 H        13.815960        6.812333       24.546225    0 0 0 0
 O         7.303312       10.417400       26.564758    0 0 0 0
 H         7.589445       10.622552       27.492258    0 0 0 0
 H         7.657162       11.199473       26.034697    0 0 0 0
 O        10.646704       10.776713       24.568316    0 0 0 0
 H        10.339827       11.770446       24.481752    0 0 0 0
 H        10.203546       10.441348       25.393612    0 0 0 0
 O         6.271040       12.132443       10.159520    0 0 0 0
 H         6.386779       11.569608       10.964185    0 0 0 0
 H         7.027527       11.818264        9.604593    0 0 0 0
 O        10.911708        6.777966       15.899673    0 0 0 0
 H        11.122289        7.176989       15.035409    0 0 0 0
 H        10.644136        5.902470       15.650206    0 0 0 0
 O         7.743939        2.416275       24.826199    0 0 0 0
 H         7.661210        3.092153       25.506214    0 0 0 0
 H         6.893395        2.226341       24.489140    0 0 0 0
 O        24.105762        5.288523       29.532675    0 0 0 0
 H        24.043549        5.810858       30.382425    0 0 0 0
 H        25.056190        5.227024       29.260124    0 0 0 0
 O         3.045567       11.569061       24.976105    0 0 0 0
 H         2.255182       10.990716       24.858068    0 0 0 0
 H         3.771604       10.986674       25.308233    0 0 0 0
 O        14.133938       -1.289229       18.068295    0 0 0 0
 H        14.732123       -0.748772       18.677591    0 0 0 0
 H        14.650496       -2.133117       18.010204    0 0 0 0
 O         1.233326       -1.009653        8.836916    0 0 0 0
 H         1.514791       -1.565655        8.089781    0 0 0 0
 H         0.286799       -0.732242        8.751463    0 0 0 0
 O         6.290400        8.563880        8.629400    0 0 0 0
 H         5.763180        8.015136        7.996849    0 0 0 0
 H         6.432472        9.375241        8.037361    0 0 0 0
 O         9.795774        0.079321       29.959757    0 0 0 0
 H         8.946880       -0.304534       29.816063    0 0 0 0
 H        10.016177       -0.068655       30.918060    0 0 0 0
 O         6.649487        1.492760       29.727915    0 0 0 0
 H         6.689534        2.426195       29.557728    0 0 0 0
 H         6.288594        1.431336       30.655176    0 0 0 0
 O        12.839262        5.390710       21.869057    0 0 0 0
 H        12.099884        5.817281       21.377468    0 0 0 0
 H        13.493785        6.069635       21.738926    0 0 0 0
 O         9.420205        6.847632       12.104892    0 0 0 0
 H         9.166035        5.879081       11.889253    0 0 0 0
 H         8.688464        7.160666       12.734908    0 0 0 0
 O         8.531731        8.726265       10.084091    0 0 0 0
 H         8.979254        8.120394       10.724589    0 0 0 0
 H         7.843127        8.238489        9.586430    0 0 0 0
 O         5.331628       -3.465930       21.431538    0 0 0 0
 H         5.594282       -2.859523       22.197393    0 0 0 0
 H         5.959894       -4.253055       21.333977    0 0 0 0
 O        15.670424        4.378043       26.317875    0 0 0 0
 H        15.312563        4.282687       25.401970    0 0 0 0
 H        15.267662        5.213845       26.568748    0 0 0 0
 O        13.822478        4.361387       18.167387    0 0 0 0
 H        14.036080        5.322071       18.285065    0 0 0 0
 H        13.994026        3.929872       19.103054    0 0 0 0
 O         3.672865        6.075636        9.026628    0 0 0 0
 H         4.578975        5.853789        8.745623    0 0 0 0
 H         3.210233        6.432556        8.251159    0 0 0 0
 O         0.635459        4.925657       30.062651    0 0 0 0
 H         0.881736        5.278858       30.924189    0 0 0 0
 H        -0.263065        4.650116       30.193926    0 0 0 0
 O         8.735637        4.151969       11.484123    0 0 0 0
 H         7.762207        4.163790       11.203084    0 0 0 0
 H         8.865248        3.502559       12.239170    0 0 0 0
 O         6.748774       15.126534        8.974065    0 0 0 0
 H         6.814027       14.568958        8.193631    0 0 0 0
 H         7.665728       15.543100        8.950706    0 0 0 0
 O         6.867433        9.927769       12.010692    0 0 0 0
 H         7.477124        9.376179       11.467470    0 0 0 0
 H         6.302395        9.318562       12.585670    0 0 0 0
 O         7.217986        4.719154       21.805126    0 0 0 0
 H         7.357711        4.563628       20.664980    0 0 0 0
 H         6.882659        3.798061       21.961744    0 0 0 0
 O        11.126195       -2.802444       20.982302    0 0 0 0
 H        10.882512       -2.480273       20.045563    0 0 0 0
 H        10.237956       -3.063811       21.276579    0 0 0 0
 O         3.368528       -8.110539       12.181295    0 0 0 0
 H         3.167983       -8.384285       13.129524    0 0 0 0
 H         2.638580       -8.539016       11.666663    0 0 0 0
 O        16.193632        6.755366       28.033960    0 0 0 0
 H        15.762815        7.509131       28.524759    0 0 0 0
 H        16.345860        7.155924       27.138535    0 0 0 0
 O        11.547397        3.023523       20.822784    0 0 0 0
 H        11.221883        2.152485       20.738491    0 0 0 0
 H        11.190299        3.231483       21.719376    0 0 0 0
 O        11.474507       13.296042       26.263639    0 0 0 0
 H        12.233205       12.744176       26.010992    0 0 0 0
 H        10.810805       12.811437       26.864403    0 0 0 0
 O        15.037810        9.686352       25.706062    0 0 0 0
 H        14.335196        9.515743       26.490704    0 0 0 0
 H        15.949413        9.878322       26.056822    0 0 0 0
 O        17.841036       13.857533       19.483826    0 0 0 0
 H        17.257223       13.815692       18.674356    0 0 0 0
 H        18.757311       14.305671       19.267653    0 0 0 0
 O         5.396135        4.476732       11.317934    0 0 0 0
 H         5.099346        5.292311       10.872542    0 0 0 0
 H         5.488526        3.884248       10.529988    0 0 0 0
 O        16.331711       12.230441       22.739225    0 0 0 0
 H        15.602255       12.825392       23.126329    0 0 0 0
 H        15.881087       11.346634       22.406866    0 0 0 0
 O        10.811442        6.981583       25.158974    0 0 0 0
 H        10.675654        7.908721       25.480204    0 0 0 0
 H        10.626557        7.007084       24.161842    0 0 0 0
 O        12.010265        2.599378       17.150135    0 0 0 0
 H        11.668496        2.049001       17.868305    0 0 0 0
 H        12.526832        3.187975       17.643429    0 0 0 0
 O        14.116476        2.816088       20.414660    0 0 0 0
 H        13.153099        2.775285       20.605307    0 0 0 0
 H        14.480836        3.472211       21.007437    0 0 0 0
 O         1.031830        7.897070       13.536110    0 0 0 0
 H         2.029831        7.982852       13.320100    0 0 0 0
 H         0.654807        7.147404       12.923729    0 0 0 0
 O         0.257943       10.630598       13.501973    0 0 0 0
 H         0.340980        9.672641       13.500658    0 0 0 0
 H        -0.605258       11.043822       13.665978    0 0 0 0
 O         4.700272        0.136825       15.493528    0 0 0 0
 H         4.409675       -0.426601       16.283421    0 0 0 0
 H         3.795029        0.454450       15.256746    0 0 0 0
 O        13.128060       -0.150040       27.687950    0 0 0 0
 H        13.419503        0.777519       27.723829    0 0 0 0
 H        13.456967       -0.540111       28.594761    0 0 0 0
 O         6.224891        8.522660       23.105272    0 0 0 0
 H         5.348995        8.955106       22.960592    0 0 0 0
 H         6.291028        8.469677       24.117878    0 0 0 0
 O        14.237097        3.845486       23.804527    0 0 0 0
 H        13.730251        3.020031       24.052734    0 0 0 0
 H        13.655114        4.309688       23.159592    0 0 0 0
 O         9.148356        6.896426       28.519064    0 0 0 0
 H         9.753548        6.268325       28.995718    0 0 0 0
 H         8.396472        7.037975       29.150845    0 0 0 0
 O         4.264277        0.023140       22.314957    0 0 0 0
 H         3.292223        0.275111       22.335583    0 0 0 0
 H         4.474176       -0.100826       21.374544    0 0 0 0
 O         7.610365       14.857897       15.031374    0 0 0 0
 H         8.502618       14.431598       14.901387    0 0 0 0
 H         6.905052       14.420927       14.429178    0 0 0 0
 O         2.168196        4.820248       12.809576    0 0 0 0
 H         2.712983        5.687519       12.759328    0 0 0 0
 H         2.899434        4.197157       12.809918    0 0 0 0
 O        11.222691        8.324771       18.242409    0 0 0 0
 H        12.272239        8.292996       18.025942    0 0 0 0
 H        10.953286        7.727448       17.479385    0 0 0 0
 O         6.533111       13.781516       17.179712    0 0 0 0
 H         5.612436       14.104830       17.299694    0 0 0 0
 H         6.959008       14.372077       16.468769    0 0 0 0
 O        14.753895       19.255260       29.666157    0 0 0 0
 H        14.347338       19.237305       30.526590    0 0 0 0
 H        15.463641       19.923965       29.565397    0 0 0 0
 O         7.775648        8.033643       30.388334    0 0 0 0
 H         6.975523        7.834650       30.855890    0 0 0 0
 H         8.342075        7.900144       31.162655    0 0 0 0
 O         8.114370        1.984211       13.244617    0 0 0 0
 H         7.721855        1.855279       14.155383    0 0 0 0
 H         7.667332        1.229580       12.748377    0 0 0 0
 O        10.157735       -5.334996       19.176954    0 0 0 0
 H        10.745017       -6.104625       19.533176    0 0 0 0
 H        10.770989       -4.938308       18.494516    0 0 0 0
 O         5.237279        3.987143       13.903551    0 0 0 0
 H         5.273665        4.104859       12.953534    0 0 0 0
 H         4.763406        3.096249       13.903654    0 0 0 0
 O        17.814079       -2.794502       14.265782    0 0 0 0
 H        18.347858       -2.381214       15.001708    0 0 0 0
 H        17.697916       -3.730082       14.619089    0 0 0 0
 O         5.577824        6.796104       18.778109    0 0 0 0
 H         6.569670        6.812699       18.835064    0 0 0 0
 H         5.313128        6.818915       19.703426    0 0 0 0
 O         8.293345        7.217358       19.423109    0 0 0 0
 H         8.415293        7.710130       18.556709    0 0 0 0
 H         9.007491        6.554151       19.277512    0 0 0 0
 O         7.139742        1.268660       15.667741    0 0 0 0
 H         7.144130        2.053879       16.278488    0 0 0 0
 H         6.196019        0.988104       15.617218    0 0 0 0
 O        11.433390        0.757604       10.675182    0 0 0 0
 H        10.876224        0.505204       11.461545    0 0 0 0
 H        11.733286       -0.142771       10.336552    0 0 0 0
 O        17.126282       -5.623906       29.507895    0 0 0 0
 H        17.573250       -5.356888       30.373823    0 0 0 0
 H        17.175436       -4.835260       28.928211    0 0 0 0
 O         8.241032       11.012961        8.935894    0 0 0 0
 H         8.181584       10.882588        7.935247    0 0 0 0
 H         8.146836       10.116035        9.267690    0 0 0 0
 O        14.292455       12.608711       27.995728    0 0 0 0
 H        14.684782       13.158302       27.161804    0 0 0 0
 H        15.043324       12.212798       28.405832    0 0 0 0
 O         0.173087        3.353245       23.822777    0 0 0 0
 H        -0.688896        3.688291       23.573196    0 0 0 0
 H         0.566877        3.624538       24.699190    0 0 0 0
 O         2.517198        1.281916       14.841935    0 0 0 0
 H         1.677511        0.945063       14.386189    0 0 0 0
 H         2.278834        1.769901       15.743176    0 0 0 0
 O         8.432246        9.636037       22.298374    0 0 0 0
 H         8.554807       10.090472       23.158453    0 0 0 0
 H         7.544586        9.371494       22.545191    0 0 0 0
 O        11.863038        8.257756       29.654549    0 0 0 0
 H        11.217544        8.969545       29.845791    0 0 0 0
 H        11.828694        7.796785       30.501631    0 0 0 0
 O        10.434326       14.163479       15.127677    0 0 0 0
 H        10.626057       13.607846       15.884911    0 0 0 0
 H        11.357202       14.089703       14.702053    0 0 0 0
 O         3.521806        7.160157       12.455274    0 0 0 0
 H         3.498268        7.721450       11.621295    0 0 0 0
 H         4.204176        7.670706       12.996576    0 0 0 0
 O        10.528494        9.115449       26.834019    0 0 0 0
 H        10.134157        8.569942       27.517822    0 0 0 0
 H        11.491517        9.301754       27.175886    0 0 0 0
 O         7.166691        7.748037       25.546209    0 0 0 0
 H         7.526705        8.569804       25.995148    0 0 0 0
 H         7.881935        7.210114       25.122400    0 0 0 0
 K         0.126249        3.142000        9.125989    0 0 0 0
 K         3.815272       11.345261        8.754005    0 0 0 0
 K        12.648283       13.010724       30.383266    0 0 0 0
 K         2.333716        5.955284       27.165714    0 0 0 0
