15
Lattice="15.0 0.0 0.0 0.0 15.0 0.0 0.0 0.0 15.0" Properties=species:S:1:pos:R:3:forces:R:3 energy=-13958.761877758576 pbc="T T T"
Ag       4.20937000       4.18479000       8.71285000       0.10243130       0.13950024       0.21320836
Ag       2.54280000       5.51102000       6.93898000       0.00181325       0.08591524      -0.08409392
Ag       4.73651000       4.16173000       5.98080000       0.00909038      -0.09882098      -0.07494214
Ag       2.17217000       5.65122000      10.09190000       0.87759467      -0.14940907       0.65369298
Ag       3.42602000       1.51044000       9.69294000      -0.05330006      -0.19568383       0.03068568
Ag       3.37219000       3.53308000      11.66570000      -0.02454915       0.48142166      -0.14581017
Ag       5.89064000       2.79918000      10.48030000      -0.03157904      -0.07614225      -0.18869786
Ag       5.28357000       5.55361000      10.86260000      -0.58375166      -0.07680901      -0.00997460
Ag       5.84402000       2.11883000       7.79791000       0.03863726       0.07318933       0.11316354
Ag       4.49584000       1.08361000      12.17080000      -0.03727357      -0.07040632       0.03508436
Ag       1.31984000       3.34156000       8.44747000       0.08975597      -0.02572290       0.02082190
Ag       5.38317000       1.60118000       5.10755000      -0.05903298      -0.03346184      -0.12032773
Ag       3.21721000       1.93906000       6.75464000       0.03730936      -0.01435288      -0.09881356
O        0.96310300       5.41129000       8.42124000      -0.45864287      -0.05876395      -0.36689853
O        1.82201000       1.32945000       8.27113000       0.07526405       0.02438784       0.02134916
15
Lattice="15.0 0.0 0.0 0.0 15.0 0.0 0.0 0.0 15.0" Properties=species:S:1:pos:R:3:forces:R:3 energy=-13958.763839427409 pbc="T T T"
Ag       4.21039526       4.18406610       8.71268127       0.09524381       0.14330498       0.21021880
Ag       2.54302853       5.51076549       6.93869986      -0.00854420       0.08560752      -0.07232203
Ag       4.73596564       4.16122524       5.98009898       0.00977341      -0.09419629      -0.07588798
Ag       2.17357239       5.65009409      10.09250818       0.87420828      -0.14892829       0.64792511
Ag       3.42723948       1.50995267       9.69328641      -0.06221597      -0.19209185       0.02011319
Ag       3.37251694       3.53261334      11.66689699      -0.02872529       0.48630830      -0.14702466
Ag       5.89040850       2.79869403      10.48100904      -0.02704382      -0.07458654      -0.19360148
Ag       5.28212922       5.55274851      10.86206379      -0.58177002      -0.07277367      -0.00695968
Ag       5.84286385       2.11974166       7.79722354       0.04504427       0.06928340       0.11916319
Ag       4.49552100       1.08522724      12.17037146      -0.03445328      -0.08157401       0.04470550
Ag       1.31935488       3.34301211       8.44705245       0.08971787      -0.01552790       0.02429813
Ag       5.38362013       1.60107550       5.10857823      -0.05770104      -0.03649002      -0.12662135
Ag       3.21707306       1.93950202       6.75374465       0.03185173      -0.01522944      -0.09544424
O        0.96143430       5.41119230       8.42330119      -0.44701945      -0.05148754      -0.37216444
O        1.82145810       1.33331911       8.27137435       0.08308846       0.00531419       0.02072058
15
Lattice="15.0 0.0 0.0 0.0 15.0 0.0 0.0 0.0 15.0" Properties=species:S:1:pos:R:3:forces:R:3 energy=-13958.765660114052 pbc="T T T"
Ag       4.21134412       4.18332970       8.71255381       0.08845435       0.14673326       0.20679534
Ag       2.54327502       5.51051258       6.93838710      -0.01883757       0.08524186      -0.06046736
Ag       4.73547199       4.16063120       5.97935921       0.01007911      -0.08907696      -0.07627180
Ag       2.17497533       5.64897849      10.09320227       0.87076244      -0.14841526       0.64214866
Ag       3.42840887       1.50940018       9.69362736      -0.06959512      -0.18837145       0.01093881
Ag       3.37283903       3.53211951      11.66804485      -0.03302541       0.49125595      -0.14813203
Ag       5.89019215       2.79816441      10.48177476      -0.02245043      -0.07292959      -0.19891092
Ag       5.28067308       5.55181302      10.86147770      -0.57963406      -0.06849425      -0.00379730
Ag       5.84177645       2.12056952       7.79657027       0.05120573       0.06569602       0.12541285
Ag       4.49522766       1.08685498      12.16991223      -0.03168485      -0.09304276       0.05452261
Ag       1.31898214       3.34446017       8.44654325       0.08965085      -0.00669661       0.02825833
Ag       5.38401154       1.60105909       5.10965384      -0.05615993      -0.04003179      -0.13326795
Ag       3.21691973       1.93989444       6.75292473       0.02760904      -0.01571790      -0.09328338
O        0.95975895       5.41086818       8.42548852      -0.43544507      -0.04312690      -0.37873451
O        1.82120392       1.33714062       8.27167656       0.08790846      -0.01773312       0.01941432
15
Lattice="15.0 0.0 0.0 0.0 15.0 0.0 0.0 0.0 15.0" Properties=species:S:1:pos:R:3:forces:R:3 energy=-13958.767333587093 pbc="T T T"
Ag       4.21224593       4.18262690       8.71255444       0.08187478       0.14978201       0.20233604
Ag       2.54348351       5.51028623       6.93807831      -0.02861295       0.08484069      -0.04899469
Ag       4.73492132       4.16008913       5.97855400       0.01020934      -0.08418984      -0.07609041
Ag       2.17636990       5.64783428      10.09383564       0.86655371      -0.14777393       0.63582254
Ag       3.42952677       1.50886899       9.69395734      -0.07751528      -0.18481336       0.00134571
Ag       3.37325587       3.53165791      11.66915907      -0.03761167       0.49617520      -0.14905569
Ag       5.88993101       2.79760655      10.48252504      -0.01764045      -0.07138058      -0.20429142
Ag       5.27919734       5.55091633      10.86092937      -0.57730576      -0.06412918      -0.00057225
Ag       5.84078491       2.12142332       7.79584878       0.05694513       0.06249986       0.13203927
Ag       4.49487623       1.08844831      12.16950431      -0.02895430      -0.10444622       0.06421848
Ag       1.31861472       3.34593240       8.44603985       0.08934937       0.00138395       0.03202837
Ag       5.38447869       1.60109325       5.11076763      -0.05486954      -0.04358658      -0.14000955
Ag       3.21672149       1.94024771       6.75216258       0.02363600      -0.01611968      -0.09108973
O        0.95799747       5.41046073       8.42754316      -0.42347752      -0.03415911      -0.38481825
O        1.82074330       1.34093549       8.27194035       0.09437554      -0.04395604       0.01844366
15
Lattice="15.0 0.0 0.0 0.0 15.0 0.0 0.0 0.0 15.0" Properties=species:S:1:pos:R:3:forces:R:3 energy=-13958.76888640485 pbc="T T T"
Ag       4.21309266       4.18203656       8.71260450       0.07593233       0.15233949       0.19798723
Ag       2.54373029       5.50998333       6.93781907      -0.03809570       0.08490092      -0.03842224
Ag       4.73433050       4.15949929       5.97778838       0.01063430      -0.07949473      -0.07613497
Ag       2.17777752       5.64670877      10.09447823       0.86151711      -0.14708167       0.62884148
Ag       3.43066373       1.50842340       9.69433425      -0.08583806      -0.18144717      -0.00872265
Ag       3.37375680       3.53129015      11.67029505      -0.04241299       0.50104040      -0.14982766
Ag       5.88963729       2.79711908      10.48333778      -0.01269057      -0.06978306      -0.21009719
Ag       5.27769037       5.55012788      10.86045550      -0.57488419      -0.05977261       0.00256399
Ag       5.83977990       2.12233113       7.79506970       0.06265145       0.05943826       0.13895786
Ag       4.49451082       1.09005813      12.16910585      -0.02617036      -0.11589038       0.07415080
Ag       1.31836509       3.34736970       8.44552184       0.08874853       0.00791700       0.03587603
Ag       5.38499482       1.60103096       5.11177073      -0.05372816      -0.04686083      -0.14639249
Ag       3.21658281       1.94054618       6.75139063       0.01834822      -0.01723940      -0.08764230
O        0.95626758       5.40998776       8.42945782      -0.41096605      -0.02507033      -0.39015042
O        1.82018766       1.34449211       8.27238063       0.10307569      -0.07066630       0.01668698
15
Lattice="15.0 0.0 0.0 0.0 15.0 0.0 0.0 0.0 15.0" Properties=species:S:1:pos:R:3:forces:R:3 energy=-13958.77018275529 pbc="T T T"
Ag       4.21398494       4.18137770       8.71269746       0.06961876       0.15523779       0.19366914
Ag       2.54407820       5.50963811       6.93756783      -0.04770636       0.08505417      -0.02780150
Ag       4.73380681       4.15886934       5.97712601       0.01140314      -0.07477797      -0.07653430
Ag       2.17918717       5.64560424      10.09516589       0.85588274      -0.14664121       0.62098234
Ag       3.43171927       1.50798836       9.69471357      -0.09322227      -0.17800563      -0.01798243
Ag       3.37422041       3.53086034      11.67144677      -0.04733570       0.50631595      -0.15061582
Ag       5.88936797       2.79667089      10.48418146      -0.00762597      -0.06818655      -0.21592279
Ag       5.27614453       5.54932128      10.85997619      -0.57240010      -0.05526558       0.00584248
Ag       5.83872740       2.12315632       7.79436987       0.06857545       0.05615918       0.14570419
Ag       4.49421032       1.09172701      12.16865391      -0.02335730      -0.12785896       0.08433365
Ag       1.31816122       3.34873409       8.44500674       0.08709670       0.01979232       0.04009981
Ag       5.38556803       1.60085236       5.11280513      -0.05264605      -0.04998771      -0.15262576
Ag       3.21646881       1.94092811       6.75057138       0.01294360      -0.01858402      -0.08425163
O        0.95454366       5.40949767       8.43129950      -0.39733030      -0.01665425      -0.39516741
O        1.81961285       1.34841810       8.27294982       0.11233431      -0.10453339       0.01458383
15
Lattice="15.0 0.0 0.0 0.0 15.0 0.0 0.0 0.0 15.0" Properties=species:S:1:pos:R:3:forces:R:3 energy=-13958.771474071626 pbc="T T T"
Ag       4.21494664       4.18079561       8.71284276       0.06271968       0.15813303       0.18840877
Ag       2.54441755       5.50940474       6.93712330      -0.05716638       0.08469722      -0.01651443
Ag       4.73331982       4.15823246       5.97647636       0.01203667      -0.06982987      -0.07672733
Ag       2.18063266       5.64449947      10.09593288       0.84921560      -0.14614775       0.61175991
Ag       3.43276002       1.50754549       9.69498824      -0.10031410      -0.17442287      -0.02687951
Ag       3.37458181       3.53052660      11.67250933      -0.05209954       0.51110086      -0.15130221
Ag       5.88902683       2.79623104      10.48503131      -0.00239438      -0.06662929      -0.22154400
Ag       5.27457139       5.54854166      10.85946872      -0.56970034      -0.05053859       0.00939123
Ag       5.83778434       2.12402480       7.79369837       0.07413035       0.05292422       0.15224236
Ag       4.49379373       1.09340541      12.16815515      -0.02061037      -0.13971196       0.09453877
Ag       1.31802192       3.35012659       8.44458074       0.08550556       0.03231527       0.04380060
Ag       5.38608165       1.60071788       5.11383903      -0.05114414      -0.05331790      -0.15910299
Ag       3.21639017       1.94125566       6.74961548       0.00690945      -0.01989511      -0.07993489
O        0.95282796       5.40902585       8.43304470      -0.38205477      -0.00817319      -0.39943475
O        1.81903969       1.35237490       8.27350842       0.12211146      -0.13838394       0.01322243
15
Lattice="15.0 0.0 0.0 0.0 15.0 0.0 0.0 0.0 15.0" Properties=species:S:1:pos:R:3:forces:R:3 energy=-13958.772602418967 pbc="T T T"
Ag       4.21592903       4.18017201       8.71302062       0.05574203       0.16122470       0.18343734
Ag       2.54481585       5.50914932       6.93670693      -0.06646243       0.08445859      -0.00558049
Ag       4.73285275       4.15763188       5.97590662       0.01300573      -0.06513123      -0.07731560
Ag       2.18203101       5.64342751      10.09667193       0.84139709      -0.14586957       0.60106930
Ag       3.43387161       1.50706298       9.69519006      -0.10714283      -0.17093427      -0.03511667
Ag       3.37486604       3.53018737      11.67351755      -0.05676883       0.51586699      -0.15208588
Ag       5.88865153       2.79564062      10.48588752       0.00288773      -0.06471790      -0.22713392
Ag       5.27299021       5.54778604      10.85900686      -0.56703515      -0.04615514       0.01281051
Ag       5.83684181       2.12489961       7.79295019       0.08002939       0.04961796       0.15910218
Ag       4.49330922       1.09509138      12.16777457      -0.01800278      -0.15153279       0.10454467
Ag       1.31787483       3.35149673       8.44421943       0.08418246       0.04372688       0.04708535
Ag       5.38668046       1.60048942       5.11487756      -0.04972903      -0.05638023      -0.16565884
Ag       3.21641985       1.94159800       6.74867573       0.00008248      -0.02141749      -0.07529911
O        0.95102231       5.40843998       8.43453061      -0.36544495       0.00091008      -0.40158460
O        1.81854372       1.35623526       8.27413590       0.13171287      -0.16915219       0.01222523
15
Lattice="15.0 0.0 0.0 0.0 15.0 0.0 0.0 0.0 15.0" Properties=species:S:1:pos:R:3:forces:R:3 energy=-13958.773627499098 pbc="T T T"
Ag       4.21699350       4.17961745       8.71318785       0.04848762       0.16388813       0.17810536
Ag       2.54521182       5.50895474       6.93630602      -0.07569194       0.08407165       0.00540951
Ag       4.73240829       4.15697190       5.97531187       0.01387639      -0.06022151      -0.07783064
Ag       2.18354806       5.64241769      10.09742985       0.83255789      -0.14582044       0.58909623
Ag       3.43490777       1.50647870       9.69544749      -0.11430061      -0.16716002      -0.04395933
Ag       3.37516409       3.52980857      11.67449019      -0.06154032       0.52084341      -0.15287063
Ag       5.88826343       2.79501869      10.48672521       0.00824126      -0.06271570      -0.23279235
Ag       5.27140928       5.54703035      10.85846107      -0.56421345      -0.04161726       0.01652568
Ag       5.83588502       2.12568856       7.79223316       0.08583768       0.04632965       0.16577807
Ag       4.49286155       1.09679075      12.16737531      -0.01534164      -0.16367173       0.11488095
Ag       1.31777556       3.35290461       8.44381644       0.08222051       0.05647602       0.05075289
Ag       5.38721302       1.60016541       5.11588439      -0.04826260      -0.05938552      -0.17208335
Ag       3.21644339       1.94202277       6.74772307      -0.00797875      -0.02351979      -0.06934998
O        0.94909764       5.40792089       8.43600602      -0.34655461       0.00954701      -0.40302660
O        1.81782723       1.36012416       8.27490793       0.14347781      -0.19694216       0.01049504
15
Lattice="15.0 0.0 0.0 0.0 15.0 0.0 0.0 0.0 15.0" Properties=species:S:1:pos:R:3:forces:R:3 energy=-13958.774534944407 pbc="T T T"
Ag       4.21802765       4.17914325       8.71322009       0.04134646       0.16663543       0.17373158
Ag       2.54565073       5.50884653       6.93584015      -0.08520800       0.08351901       0.01654995
Ag       4.73209992       4.15624270       5.97480542       0.01451041      -0.05501790      -0.07875289
Ag       2.18506032       5.64141427      10.09820849       0.82230218      -0.14596055       0.57533911
Ag       3.43596733       1.50582947       9.69564616      -0.12108637      -0.16325012      -0.05253582
Ag       3.37536590       3.52937769      11.67540145      -0.06638200       0.52611792      -0.15371508
Ag       5.88773872       2.79436752      10.48759109       0.01389592      -0.06013897      -0.23871935
Ag       5.26979728       5.54634965      10.85788966      -0.56152753      -0.03749181       0.02009129
Ag       5.83490613       2.12656521       7.79152762       0.09185120       0.04268903       0.17223068
Ag       4.49235399       1.09846453      12.16686121      -0.01266948      -0.17627459       0.12577100
Ag       1.31778172       3.35426772       8.44351554       0.07928439       0.07267118       0.05403222
Ag       5.38769891       1.59982899       5.11682088      -0.04684566      -0.06242355      -0.17823594
Ag       3.21644518       1.94240787       6.74681246      -0.01466786      -0.02518873      -0.06494938
O        0.94702115       5.40747821       8.43730217      -0.32460921       0.01695697      -0.40255761
O        1.81727555       1.36410756       8.27557597       0.15337527      -0.22374215       0.00969902
15
Lattice="15.0 0.0 0.0 0.0 15.0 0.0 0.0 0.0 15.0" Properties=species:S:1:pos:R:3:forces:R:3 energy=-13958.775346660059 pbc="T T T"
Ag       4.21905357       4.17862738       8.71319083       0.03407452       0.16955117       0.16965670
Ag       2.54609186       5.50869655       6.93537717      -0.09473535       0.08317604       0.02748073
Ag       4.73175148       4.15552333       5.97432787       0.01538882      -0.05018661      -0.08004320
Ag       2.18662349       5.64030570      10.09904213       0.81089752      -0.14608655       0.56028909
Ag       3.43695192       1.50511642       9.69583992      -0.12699428      -0.15907064      -0.06017154
Ag       3.37550632       3.52895375      11.67632332      -0.07120768       0.53146111      -0.15466410
Ag       5.88717898       2.79378587      10.48840535       0.01964350      -0.05765237      -0.24461011
Ag       5.26817690       5.54567692      10.85725887      -0.55891748      -0.03335269       0.02363292
Ag       5.83386778       2.12742637       7.79078015       0.09817011       0.03892158       0.17885996
Ag       4.49186779       1.10023308      12.16633027      -0.00992155      -0.18920422       0.13674917
Ag       1.31769411       3.35569405       8.44323377       0.07676721       0.08780347       0.05708916
Ag       5.38823341       1.59936296       5.11780755      -0.04555721      -0.06523877      -0.18447927
Ag       3.21645615       1.94271889       6.74590664      -0.02135353      -0.02671272      -0.06076618
O        0.94486369       5.40706958       8.43847298      -0.30090289       0.02484824      -0.40049758
O        1.81687294       1.36806131       8.27633237       0.16152413      -0.24687278       0.00814978
15
Lattice="15.0 0.0 0.0 0.0 15.0 0.0 0.0 0.0 15.0" Properties=species:S:1:pos:R:3:forces:R:3 energy=-13958.776184797965 pbc="T T T"
Ag       4.22004356       4.17813586       8.71312488       0.02736176       0.17230606       0.16606152
Ag       2.54665121       5.50858934       6.93490806      -0.10512102       0.08293877       0.03881574
Ag       4.73141949       4.15474559       5.97385298       0.01641144      -0.04504674      -0.08148654
Ag       2.18832045       5.63917325      10.09983975       0.79816080      -0.14622012       0.54388443
Ag       3.43790030       1.50442263       9.69597889      -0.13268553      -0.15509534      -0.06746081
Ag       3.37559832       3.52853928      11.67716334      -0.07579503       0.53649743      -0.15550829
Ag       5.88661132       2.79309194      10.48918928       0.02512555      -0.05492604      -0.25032356
Ag       5.26656866       5.54504016      10.85670085      -0.55641612      -0.02964923       0.02688093
Ag       5.83283030       2.12827532       7.79002000       0.10454842       0.03515362       0.18550371
Ag       4.49126646       1.10191710      12.16589706      -0.00735218      -0.20167553       0.14717733
Ag       1.31760526       3.35710790       8.44287356       0.07392227       0.10347646       0.05998597
Ag       5.38878931       1.59897059       5.11876340      -0.04427898      -0.06825386      -0.19079529
Ag       3.21645721       1.94308042       6.74500945      -0.02694406      -0.02806802      -0.05783704
O        0.94253444       5.40681731       8.43958612      -0.27391578       0.03143732      -0.39743898
O        1.81665729       1.37184853       8.27679533       0.16792454      -0.26685155       0.00753971
15
Lattice="15.0 0.0 0.0 0.0 15.0 0.0 0.0 0.0 15.0" Properties=species:S:1:pos:R:3:forces:R:3 energy=-13958.776845680903 pbc="T T T"
Ag       4.22104548       4.17769215       8.71303004       0.02102405       0.17480556       0.16296368
Ag       2.54732091       5.50849281       6.93443115      -0.11494142       0.08294951       0.04929859
Ag       4.73102672       4.15393809       5.97341100       0.01787409      -0.03976806      -0.08331573
Ag       2.19005998       5.63803968      10.10073015       0.78573488      -0.14634946       0.52801917
Ag       3.43889612       1.50371833       9.69606091      -0.13696010      -0.15089551      -0.07330014
Ag       3.37563025       3.52809395      11.67807517      -0.08030191       0.54173225      -0.15662661
Ag       5.88614716       2.79236961      10.48999284       0.03026159      -0.05193538      -0.25627001
Ag       5.26492827       5.54435172      10.85620144      -0.55392392      -0.02594947       0.03012798
Ag       5.83177898       2.12910507       7.78924927       0.11102766       0.03141155       0.19236845
Ag       4.49067376       1.10369851      12.16545486      -0.00467046      -0.21463945       0.15775995
Ag       1.31747535       3.35849188       8.44251891       0.07236491       0.11639280       0.06280183
Ag       5.38932126       1.59858174       5.11974633      -0.04282133      -0.07142707      -0.19738094
Ag       3.21647383       1.94346731       6.74408538      -0.03277214      -0.02953613      -0.05486318
O        0.94054856       5.40642301       8.44060774      -0.24913828       0.03993946      -0.39398398
O        1.81676591       1.37549392       8.27742886       0.17168060      -0.28467752       0.00553347
15
Lattice="15.0 0.0 0.0 0.0 15.0 0.0 0.0 0.0 15.0" Properties=species:S:1:pos:R:3:forces:R:3 energy=-13958.777230068947 pbc="T T T"
Ag       4.22198291       4.17720963       8.71290636       0.01480108       0.17726106       0.16031405
Ag       2.54803189       5.50832804       6.93397627      -0.12621256       0.08325233       0.06061892
Ag       4.73058121       4.15315026       5.97305363       0.01985079      -0.03465646      -0.08562125
Ag       2.19171931       5.63689888      10.10162214       0.77299024      -0.14646209       0.51174600
Ag       3.43980857       1.50306327       9.69613581      -0.14100999      -0.14689147      -0.07889627
Ag       3.37562939       3.52763069      11.67894959      -0.08498291       0.54718861      -0.15762792
Ag       5.88562046       2.79163324      10.49080348       0.03543033      -0.04899552      -0.26233214
Ag       5.26318278       5.54364935      10.85570379      -0.55137927      -0.02217821       0.03334598
Ag       5.83067767       2.12983445       7.78845917       0.11741184       0.02775390       0.19936567
Ag       4.49002359       1.10551595      12.16512961      -0.00205517      -0.22769752       0.16802761
Ag       1.31724892       3.35994153       8.44217687       0.07054509       0.12964057       0.06565587
Ag       5.38987683       1.59822026       5.12067296      -0.04147818      -0.07448791      -0.20389492
Ag       3.21644287       1.94390002       6.74306944      -0.03886097      -0.03120531      -0.05158133
O        0.93820628       5.40600304       8.44178039      -0.22179024       0.04883134      -0.39132111
O        1.81682632       1.37924905       8.27805806       0.17584483      -0.30238595       0.00284390
15
Lattice="15.0 0.0 0.0 0.0 15.0 0.0 0.0 0.0 15.0" Properties=species:S:1:pos:R:3:forces:R:3 energy=-13958.77749159758 pbc="T T T"
Ag       4.22301297       4.17676640       8.71276370       0.00820744       0.17994603       0.15805203
Ag       2.54875223       5.50810977       6.93355020      -0.13757701       0.08365681       0.07189737
Ag       4.73019570       4.15232954       5.97273144       0.02173945      -0.02912934      -0.08810865
Ag       2.19342916       5.63584434      10.10250791       0.75960948      -0.14670650       0.49468025
Ag       3.44072522       1.50237147       9.69612112      -0.14455162      -0.14281500      -0.08354655
Ag       3.37562346       3.52721293      11.67979341      -0.08960662       0.55227761      -0.15871109
Ag       5.88512401       2.79086719      10.49167788       0.04056780      -0.04589723      -0.26857529
Ag       5.26146081       5.54290228      10.85522211      -0.54872276      -0.01820863       0.03663301
Ag       5.82954006       2.13068581       7.78771179       0.12437206       0.02365225       0.20649241
Ag       4.48950318       1.10736274      12.16484495       0.00015575      -0.24067187       0.17800133
Ag       1.31706675       3.36146944       8.44187927       0.06868120       0.14082961       0.06841567
Ag       5.39040283       1.59786714       5.12171709      -0.03979686      -0.07785999      -0.21094752
Ag       3.21646963       1.94433719       6.74208639      -0.04622236      -0.03319265      -0.04747094
O        0.93570395       5.40566131       8.44294643      -0.19289173       0.05788041      -0.38777858
O        1.81687876       1.38281556       8.27878455       0.18023061      -0.31835081      -0.00087956
15
Lattice="15.0 0.0 0.0 0.0 15.0 0.0 0.0 0.0 15.0" Properties=species:S:1:pos:R:3:forces:R:3 energy=-13958.777503488955 pbc="T T T"
Ag       4.22406859       4.17637166       8.71263138       0.00180700       0.18234986       0.15579049
Ag       2.54945718       5.50780258       6.93303498      -0.14891165       0.08415357       0.08305403
Ag       4.72975857       4.15148015       5.97240324       0.02380791      -0.02370799      -0.09066008
Ag       2.19513712       5.63480107      10.10332818       0.74638647      -0.14669296       0.47808332
Ag       3.44166873       1.50162384       9.69600753      -0.14790903      -0.13861293      -0.08776019
Ag       3.37558895       3.52678524      11.68061703      -0.09428169       0.55754018      -0.15999778
Ag       5.88465846       2.79012967      10.49260702       0.04535957      -0.04288460      -0.27493216
Ag       5.25970022       5.54222415      10.85478462      -0.54606511      -0.01434422       0.03991560
Ag       5.82848450       2.13153803       7.78698256       0.13088021       0.01962904       0.21346196
Ag       4.48889369       1.10929264      12.16471424       0.00236014      -0.25371480       0.18749919
Ag       1.31696825       3.36299276       8.44171667       0.06678283       0.15046866       0.07078380
Ag       5.39091107       1.59756321       5.12268661      -0.03824754      -0.08122393      -0.21764491
Ag       3.21642699       1.94473562       6.74110955      -0.05308429      -0.03511120      -0.04352618
O        0.93319462       5.40508104       8.44409270      -0.16501286       0.06902028      -0.38388827
O        1.81681987       1.38637361       8.27946575       0.18526937      -0.33609841      -0.00444874
15
Lattice="15.0 0.0 0.0 0.0 15.0 0.0 0.0 0.0 15.0" Properties=species:S:1:pos:R:3:forces:R:3 energy=-13958.777489937685 pbc="T T T"
Ag       4.22522281       4.17590478       8.71257910      -0.00563700       0.18562177       0.15275174
Ag       2.55006789       5.50756976       6.93244514      -0.15961593       0.08413793       0.09452296
Ag       4.72930129       4.15067352       5.97200981       0.02543923      -0.01859429      -0.09272650
Ag       2.19682432       5.63383209      10.10420138       0.73176403      -0.14717862       0.45937163
Ag       3.44268318       1.50088899       9.69589355      -0.15202129      -0.13463158      -0.09263251
Ag       3.37556602       3.52641753      11.68139405      -0.09913629       0.56273680      -0.16120225
Ag       5.88421853       2.78937630      10.49356153       0.05048988      -0.03976605      -0.28121414
Ag       5.25790473       5.54155787      10.85441937      -0.54326469      -0.01039967       0.04317221
Ag       5.82738673       2.13243062       7.78626903       0.13756632       0.01535098       0.22025846
Ag       4.48830357       1.11129089      12.16461215       0.00445485      -0.26694035       0.19719913
Ag       1.31687121       3.36445084       8.44155034       0.06466081       0.16166179       0.07284057
Ag       5.39140569       1.59723061       5.12371079      -0.03668042      -0.08451818      -0.22445399
Ag       3.21631830       1.94498803       6.74009262      -0.05934042      -0.03658934      -0.03986420
O        0.93055252       5.40471987       8.44500299      -0.13567391       0.07808296      -0.37701969
O        1.81678824       1.38972082       8.28000185       0.19043108      -0.35462250      -0.00702046
15
Lattice="15.0 0.0 0.0 0.0 15.0 0.0 0.0 0.0 15.0" Properties=species:S:1:pos:R:3:forces:R:3 energy=-13958.77724802846 pbc="T T T"
Ag       4.22643802       4.17541790       8.71257701      -0.01364260       0.18926915       0.14933855
Ag       2.55065982       5.50737532       6.93192698      -0.16961022       0.08370144       0.10573035
Ag       4.72901560       4.14988032       5.97161290       0.02644869      -0.01301162      -0.09439749
Ag       2.19852878       5.63290245      10.10506118       0.71740103      -0.14767128       0.44103726
Ag       3.44362092       1.50015538       9.69573152      -0.15574882      -0.13075244      -0.09692288
Ag       3.37556187       3.52604001      11.68212069      -0.10392172       0.56779589      -0.16231775
Ag       5.88377540       2.78868190      10.49457438       0.05562235      -0.03687488      -0.28754550